VARIABLES="w (rad/s)"  
"abs(F   1   1)" "angle(F   1   1)"
"abs(F   1   2)" "angle(F   1   2)"
"abs(F   1   3)" "angle(F   1   3)"
"abs(F   1   4)" "angle(F   1   4)"
"abs(F   1   5)" "angle(F   1   5)"
"abs(F   1   6)" "angle(F   1   6)"
Zone t="Diffraction force - beta =   0.000 deg",I=    10,F=POINT
  0.3141590E+00  0.4853872E+05 -0.1569432E+01  0.9762291E+04 -0.2806079E+01  0.4169973E+05 -0.2993837E+01  0.2042996E+06  0.1512285E+00  0.3535700E+05 -0.1568421E+01  0.2261423E+06 -0.1569517E+01
  0.5119630E+00  0.9683571E+05 -0.1561387E+01  0.2690162E+05 -0.2619715E+01  0.1052602E+06 -0.2914897E+01  0.5161216E+06  0.2330290E+00  0.6815016E+05 -0.1554376E+01  0.4500720E+06 -0.1561946E+01
  0.7097670E+00  0.1786757E+06 -0.1518317E+01  0.5121761E+05 -0.2308113E+01  0.1755824E+06 -0.2793595E+01  0.8605442E+06  0.3605621E+00  0.1224511E+06 -0.1480685E+01  0.8267807E+06 -0.1521183E+01
  0.9075710E+00  0.2905587E+06 -0.1388637E+01  0.7557830E+05 -0.1956113E+01  0.2253052E+06 -0.2688350E+01  0.1098122E+07  0.4747672E+00  0.1969789E+06 -0.1266754E+01  0.1337148E+07 -0.1397548E+01
  0.1105375E+01  0.3818751E+06 -0.1141751E+01  0.9510112E+05 -0.1570113E+01  0.2455433E+06 -0.2604300E+01  0.1178627E+07  0.5664986E+00  0.2609275E+06 -0.8615733E+00  0.1749149E+07 -0.1161232E+01
  0.1303179E+01  0.3633608E+06 -0.8343423E+00  0.1035112E+06 -0.1124574E+01  0.2342364E+06 -0.2524021E+01  0.1094874E+07  0.6413814E+00  0.2624051E+06 -0.2899235E+00  0.1660549E+07 -0.8694580E+00
  0.1500983E+01  0.2252774E+06 -0.5773087E+00  0.9432999E+05 -0.6071369E+00  0.1916783E+06 -0.2433574E+01  0.8750099E+06  0.6965756E+00  0.2095861E+06  0.4331860E+00  0.1032925E+07 -0.6359973E+00
  0.1698787E+01  0.3933270E+05 -0.4623218E+00  0.6815967E+05 -0.4280922E-01  0.1270628E+06 -0.2363529E+01  0.5914365E+06  0.6973287E+00  0.1856945E+06  0.1379698E+01  0.1889590E+06 -0.5788592E+00
  0.1896591E+01  0.1371694E+06  0.2921682E+01  0.3891619E+05  0.6011350E+00  0.5694355E+05 -0.2432939E+01  0.3220560E+06  0.5600126E+00  0.2436645E+06  0.2171141E+01  0.6444229E+06  0.2827138E+01
  0.2094395E+01  0.2628733E+06  0.3011037E+01  0.4117069E+04  0.1586845E+01  0.6609262E+05 -0.3090949E+01  0.2893444E+06  0.1994734E+00  0.3263758E+06  0.2600987E+01  0.1309066E+07  0.2907370E+01
