VARIABLES="w (rad/s)"  
"abs(F   1   1)" "angle(F   1   1)"
"abs(F   1   2)" "angle(F   1   2)"
"abs(F   1   3)" "angle(F   1   3)"
"abs(F   1   4)" "angle(F   1   4)"
"abs(F   1   5)" "angle(F   1   5)"
"abs(F   1   6)" "angle(F   1   6)"
Zone t="Excitation force - beta =   0.000 deg",I=    10,F=POINT
  0.3141590E+00  0.1191377E+06 -0.1570240E+01  0.4809155E+06 -0.6683701E-02  0.9154595E+06 -0.6705952E-02  0.4591397E+07  0.3134889E+01  0.1511407E+06 -0.1570240E+01  0.5205458E+06 -0.1570240E+01
  0.5119630E+00  0.2306609E+06 -0.1566846E+01  0.4461166E+06 -0.3006547E-01  0.7758046E+06 -0.3049976E-01  0.3915147E+07  0.3111146E+01  0.2834363E+06 -0.1566850E+01  0.1008019E+07 -0.1566846E+01
  0.7097670E+00  0.4046631E+06 -0.1547633E+01  0.4058944E+06 -0.9354770E-01  0.6074259E+06 -0.9873451E-01  0.3103380E+07  0.3043607E+01  0.4765107E+06 -0.1547669E+01  0.1768412E+07 -0.1547608E+01
  0.9075710E+00  0.6226614E+06 -0.1486162E+01  0.3767803E+06 -0.1869700E+00  0.4500399E+06 -0.2210139E+00  0.2354152E+07  0.2926708E+01  0.7002576E+06 -0.1486483E+01  0.2719291E+07 -0.1485929E+01
  0.1105375E+01  0.7996424E+06 -0.1370800E+01  0.3632440E+06 -0.2648977E+00  0.3201272E+06 -0.4034231E+00  0.1740329E+07  0.2769610E+01  0.8619746E+06 -0.1372359E+01  0.3485043E+07 -0.1369579E+01
  0.1303179E+01  0.8185243E+06 -0.1268025E+01  0.3532112E+06 -0.2675428E+00  0.2265618E+06 -0.6418421E+00  0.1270584E+07  0.2599927E+01  0.8561391E+06 -0.1272694E+01  0.3546755E+07 -0.1263907E+01
  0.1500983E+01  0.6939953E+06 -0.1295324E+01  0.3195254E+06 -0.1692345E+00  0.1649053E+06 -0.8570479E+00  0.9020801E+06  0.2469862E+01  0.7206138E+06 -0.1303650E+01  0.2958798E+07 -0.1286120E+01
  0.1698787E+01  0.5419013E+06 -0.1505787E+01  0.2462566E+06 -0.1184549E-01  0.1109547E+06 -0.9336581E+00  0.5758988E+06  0.2421443E+01  0.5752971E+06 -0.1509449E+01  0.2210778E+07 -0.1499188E+01
  0.1896591E+01  0.4351882E+06 -0.1883471E+01  0.1550579E+06  0.1424293E+00  0.5575602E+05 -0.7270567E+00  0.2931602E+06  0.2518492E+01  0.4798418E+06 -0.1861755E+01  0.1646475E+07 -0.1952178E+01
  0.2094395E+01  0.3831552E+06 -0.2318882E+01  0.7077827E+05  0.5819398E-01  0.2822512E+05 -0.3022774E+01  0.6653095E+05  0.1038755E+01  0.4344290E+06 -0.2270696E+01  0.1523944E+07 -0.2559917E+01
