VARIABLES="w (rad/s)"
"abs(F   1   1)" "angle(F   1   1)"
"abs(F   1   2)" "angle(F   1   2)"
"abs(F   1   3)" "angle(F   1   3)"
"abs(F   1   4)" "angle(F   1   4)"
"abs(F   1   5)" "angle(F   1   5)"
"abs(F   1   6)" "angle(F   1   6)"
Zone t="FKforce - beta =   0.000",I=    10,F=POINT
  0.3141590E+00  0.7059897E+05 -0.1570795E+01  0.4901227E+06  0.1307569E-08  0.9566843E+06  0.5422884E-09  0.4793262E+07  0.3141593E+01  0.1157838E+06 -0.1570795E+01  0.2944035E+06 -0.1570795E+01
  0.5119630E+00  0.1338277E+06 -0.1570796E+01  0.4692356E+06  0.4032282E-08  0.8780109E+06  0.1181759E-08  0.4415504E+07  0.3141593E+01  0.2152931E+06 -0.1570798E+01  0.5579571E+06 -0.1570798E+01
  0.7097670E+00  0.2261248E+06 -0.1570796E+01  0.4385535E+06  0.2644302E-08  0.7695251E+06  0.1506992E-08  0.3893704E+07  0.3141593E+01  0.3544290E+06 -0.1570796E+01  0.9421737E+06 -0.1570797E+01
  0.9075710E+00  0.3346813E+06 -0.1570797E+01  0.3986200E+06  0.1408669E-07  0.6416496E+06 -0.2663423E-08  0.3276678E+07 -0.3141593E+01  0.5098259E+06 -0.1570797E+01  0.1392373E+07 -0.1570797E+01
  0.1105375E+01  0.4364403E+06 -0.1570796E+01  0.3505088E+06  0.1462717E-07  0.5053739E+06  0.2173901E-08  0.2615814E+07  0.3141593E+01  0.6470494E+06 -0.1570796E+01  0.1810244E+07 -0.1570796E+01
  0.1303179E+01  0.5120951E+06 -0.1570796E+01  0.2959738E+06 -0.3134515E-07  0.3724446E+06  0.9504874E-08  0.1965991E+07 -0.3141593E+01  0.7433634E+06 -0.1570796E+01  0.2112418E+07 -0.1570796E+01
  0.1500983E+01  0.5448796E+06 -0.1570796E+01  0.2374889E+06  0.5756849E-07  0.2535677E+06 -0.4332700E-08  0.1377270E+07 -0.3141593E+01  0.7830291E+06 -0.1570796E+01  0.2226178E+07 -0.1570796E+01
  0.1698787E+01  0.5232132E+06 -0.1570796E+01  0.1781421E+06  0.5756025E-07  0.1565102E+06 -0.1403912E-07  0.8862787E+06  0.3141593E+01  0.7565290E+06 -0.1570796E+01  0.2101739E+07 -0.1570796E+01
  0.1896591E+01  0.4440102E+06 -0.1570796E+01  0.1213938E+06  0.6234553E-07  0.8489098E+05 -0.1437966E-07  0.5109289E+06 -0.3141593E+01  0.6607314E+06 -0.1570796E+01  0.1727496E+07 -0.1570796E+01
  0.2094395E+01  0.3150718E+06 -0.1570797E+01  0.7072452E+05  0.7594387E-07  0.3798176E+05 -0.1928352E-07  0.2498563E+06 -0.3141593E+01  0.5002688E+06 -0.1570796E+01  0.1141110E+07 -0.1570796E+01
