 VARIABLES="Time (s)"
"AddedMass    1" "IRF    1"
"AddedMass    2" "IRF    2"
"AddedMass    3" "IRF    3"
"AddedMass    4" "IRF    4"
"AddedMass    5" "IRF    5"
"AddedMass    6" "IRF    6"
Zone t="DoF    1",I=   100,F=POINT
  0.1000000E+00  0.2145952E+06  0.3022444E+06  0.5185552E-02  0.5725986E-02  0.1979136E-01  0.1106845E-01 -0.1056990E+00 -0.5691787E-01  0.1254138E+06  0.3116604E+06  0.1042993E+07  0.1353779E+07
  0.2000000E+00  0.2145952E+06  0.2908394E+06  0.5185552E-02  0.5587992E-02  0.1979136E-01  0.1086269E-01 -0.1056990E+00 -0.5578330E-01  0.1254138E+06  0.2999376E+06  0.1042993E+07  0.1302156E+07
  0.3000000E+00  0.2145952E+06  0.2721957E+06  0.5185552E-02  0.5362250E-02  0.1979136E-01  0.1052386E-01 -0.1056990E+00 -0.5391864E-01  0.1254138E+06  0.2807746E+06  0.1042993E+07  0.1217786E+07
  0.4000000E+00  0.2145952E+06  0.2468478E+06  0.5185552E-02  0.5054974E-02  0.1979136E-01  0.1005801E-01 -0.1056990E+00 -0.5136258E-01  0.1254138E+06  0.2547219E+06  0.1042993E+07  0.1103113E+07
  0.5000000E+00  0.2145952E+06  0.2155202E+06  0.5185552E-02  0.4674552E-02  0.1979136E-01  0.9473415E-02 -0.1056990E+00 -0.4816770E-01  0.1254138E+06  0.2225251E+06  0.1042993E+07  0.9614501E+06
  0.6000000E+00  0.2145952E+06  0.1791049E+06  0.5185552E-02  0.4231249E-02  0.1979136E-01  0.8780384E-02 -0.1056990E+00 -0.4439908E-01  0.1254138E+06  0.1851019E+06  0.1042993E+07  0.7968722E+06
  0.7000000E+00  0.2145952E+06  0.1386324E+06  0.5185552E-02  0.3736850E-02  0.1979136E-01  0.7991020E-02 -0.1056990E+00 -0.4013249E-01  0.1254138E+06  0.1435126E+06  0.1042993E+07  0.6140869E+06
  0.8000000E+00  0.2145952E+06  0.9524026E+05  0.5185552E-02  0.3204239E-02  0.1979136E-01  0.7118945E-02 -0.1056990E+00 -0.3545231E-01  0.1254138E+06  0.9892710E+05  0.1042993E+07  0.4182851E+06
  0.9000000E+00  0.2145952E+06  0.5013719E+05  0.5185552E-02  0.2646958E-02  0.1979136E-01  0.6178997E-02 -0.1056990E+00 -0.3044921E-01  0.1254138E+06  0.5258821E+05  0.1042993E+07  0.2149781E+06
  0.1000000E+01  0.2145952E+06  0.4565876E+04  0.5185552E-02  0.2078739E-02  0.1979136E-01  0.5186897E-02 -0.1056990E+00 -0.2521779E-01  0.1254138E+06  0.5773131E+04  0.1042993E+07  0.9825251E+04
  0.1100000E+01  0.2145952E+06 -0.4023529E+05  0.5185552E-02  0.1513032E-02  0.1979136E-01  0.4158898E-02 -0.1056990E+00 -0.1985409E-01  0.1254138E+06 -0.4024597E+05  0.1042993E+07 -0.1915417E+06
  0.1200000E+01  0.2145952E+06 -0.8306959E+05  0.5185552E-02  0.9625608E-03  0.1979136E-01  0.3111445E-02 -0.1056990E+00 -0.1445308E-01  0.1254138E+06 -0.8424042E+05  0.1042993E+07 -0.3836902E+06
  0.1300000E+01  0.2145952E+06 -0.1228178E+06  0.5185552E-02  0.4389047E-03  0.1979136E-01  0.2060827E-02 -0.1056990E+00 -0.9106395E-02  0.1254138E+06 -0.1250619E+06  0.1042993E+07 -0.5615513E+06
  0.1400000E+01  0.2145952E+06 -0.1584708E+06  0.5185552E-02 -0.4787187E-04  0.1979136E-01  0.1022837E-02 -0.1056990E+00 -0.3900063E-02  0.1254138E+06 -0.1616763E+06  0.1042993E+07 -0.7205694E+06
  0.1500000E+01  0.2145952E+06 -0.1891589E+06  0.5185552E-02 -0.4895207E-03  0.1979136E-01  0.1246428E-04 -0.1056990E+00  0.1087409E-02  0.1254138E+06 -0.1931930E+06  0.1042993E+07 -0.8568339E+06
  0.1600000E+01  0.2145952E+06 -0.2141751E+06  0.5185552E-02 -0.8798382E-03  0.1979136E-01 -0.9563887E-03 -0.1056990E+00  0.5786709E-02  0.1254138E+06 -0.2188897E+06  0.1042993E+07 -0.9671866E+06
  0.1700000E+01  0.2145952E+06 -0.2329935E+06  0.5185552E-02 -0.1214819E-02  0.1979136E-01 -0.1871158E-02 -0.1056990E+00  0.1013905E-01  0.1254138E+06 -0.2382307E+06  0.1042993E+07 -0.1049305E+07
  0.1800000E+01  0.2145952E+06 -0.2452819E+06  0.5185552E-02 -0.1492711E-02  0.1979136E-01 -0.2720826E-02 -0.1056990E+00  0.1409715E-01  0.1254138E+06 -0.2508793E+06  0.1042993E+07 -0.1101754E+07
  0.1900000E+01  0.2145952E+06 -0.2509070E+06  0.5185552E-02 -0.1713988E-02  0.1979136E-01 -0.3496076E-02 -0.1056990E+00  0.1762575E-01  0.1254138E+06 -0.2567038E+06  0.1042993E+07 -0.1124014E+07
  0.2000000E+01  0.2145952E+06 -0.2499336E+06  0.5185552E-02 -0.1881240E-02  0.1979136E-01 -0.4189425E-02 -0.1056990E+00  0.2070187E-01  0.1254138E+06 -0.2557758E+06  0.1042993E+07 -0.1116469E+07
  0.2100000E+01  0.2145952E+06 -0.2426180E+06  0.5185552E-02 -0.1998971E-02  0.1979136E-01 -0.4795271E-02 -0.1056990E+00  0.2331454E-01  0.1254138E+06 -0.2483632E+06  0.1042993E+07 -0.1080374E+07
  0.2200000E+01  0.2145952E+06 -0.2293942E+06  0.5185552E-02 -0.2073331E-02  0.1979136E-01 -0.5309922E-02 -0.1056990E+00  0.2546426E-01  0.1254138E+06 -0.2349159E+06  0.1042993E+07 -0.1017795E+07
  0.2300000E+01  0.2145952E+06 -0.2108557E+06  0.5185552E-02 -0.2111790E-02  0.1979136E-01 -0.5731558E-02 -0.1056990E+00  0.2716208E-01  0.1254138E+06 -0.2160470E+06  0.1042993E+07 -0.9315144E+06
  0.2400000E+01  0.2145952E+06 -0.1877322E+06  0.5185552E-02 -0.2122752E-02  0.1979136E-01 -0.6060170E-02 -0.1056990E+00  0.2842844E-01  0.1254138E+06 -0.1925081E+06  0.1042993E+07 -0.8249263E+06
  0.2500000E+01  0.2145952E+06 -0.1608626E+06  0.5185552E-02 -0.2115152E-02  0.1979136E-01 -0.6297425E-02 -0.1056990E+00  0.2929166E-01  0.1254138E+06 -0.1651614E+06  0.1042993E+07 -0.7019101E+06
  0.2600000E+01  0.2145952E+06 -0.1311648E+06  0.5185552E-02 -0.2098018E-02  0.1979136E-01 -0.6446531E-02 -0.1056990E+00  0.2978645E-01  0.1254138E+06 -0.1349494E+06  0.1042993E+07 -0.5666902E+06
  0.2700000E+01  0.2145952E+06 -0.9960503E+05  0.5185552E-02 -0.2080058E-02  0.1979136E-01 -0.6512049E-02 -0.1056990E+00  0.2995214E-01  0.1254138E+06 -0.1028615E+06  0.1042993E+07 -0.4236915E+06
  0.2800000E+01  0.2145952E+06 -0.6716476E+05  0.5185552E-02 -0.2069240E-02  0.1979136E-01 -0.6499693E-02 -0.1056990E+00  0.2983088E-01  0.1254138E+06 -0.6990192E+05  0.1042993E+07 -0.2773901E+06
  0.2900000E+01  0.2145952E+06 -0.3480948E+05  0.5185552E-02 -0.2072438E-02  0.1979136E-01 -0.6416110E-02 -0.1056990E+00  0.2946604E-01  0.1254138E+06 -0.3705605E+05  0.1042993E+07 -0.1321677E+06
  0.3000000E+01  0.2145952E+06 -0.3459113E+04  0.5185552E-02 -0.2095088E-02  0.1979136E-01 -0.6268654E-02 -0.1056990E+00  0.2890040E-01  0.1254138E+06 -0.5260996E+04  0.1042993E+07  0.7822903E+04
  0.3100000E+01  0.2145952E+06  0.2604042E+05  0.5185552E-02 -0.2140951E-02  0.1979136E-01 -0.6065157E-02 -0.1056990E+00  0.2817477E-01  0.1254138E+06  0.2462381E+05  0.1042993E+07  0.1387870E+06
  0.3200000E+01  0.2145952E+06  0.5294034E+05  0.5185552E-02 -0.2211913E-02  0.1979136E-01 -0.5813712E-02 -0.1056990E+00  0.2732663E-01  0.1254138E+06  0.5183999E+05  0.1042993E+07  0.2573917E+06
  0.3300000E+01  0.2145952E+06  0.7660954E+05  0.5185552E-02 -0.2307887E-02  0.1979136E-01 -0.5522446E-02 -0.1056990E+00  0.2638905E-01  0.1254138E+06  0.7575115E+05  0.1042993E+07  0.3608592E+06
  0.3400000E+01  0.2145952E+06  0.9654977E+05  0.5185552E-02 -0.2426798E-02  0.1979136E-01 -0.5199341E-02 -0.1056990E+00  0.2538991E-01  0.1254138E+06  0.9585798E+05  0.1042993E+07  0.4470314E+06
  0.3500000E+01  0.2145952E+06  0.1124054E+06  0.5185552E-02 -0.2564638E-02  0.1979136E-01 -0.4852064E-02 -0.1056990E+00  0.2435136E-01  0.1254138E+06  0.1118080E+06  0.1042993E+07  0.5144123E+06
  0.3600000E+01  0.2145952E+06  0.1239688E+06  0.5185552E-02 -0.2715637E-02  0.1979136E-01 -0.4487809E-02 -0.1056990E+00  0.2328960E-01  0.1254138E+06  0.1234005E+06  0.1042993E+07  0.5621890E+06
  0.3700000E+01  0.2145952E+06  0.1311800E+06  0.5185552E-02 -0.2872475E-02  0.1979136E-01 -0.4113198E-02 -0.1056990E+00  0.2221496E-01  0.1254138E+06  0.1305858E+06  0.1042993E+07  0.5902235E+06
  0.3800000E+01  0.2145952E+06  0.1341210E+06  0.5185552E-02 -0.3026593E-02  0.1979136E-01 -0.3734179E-02 -0.1056990E+00  0.2113223E-01  0.1254138E+06  0.1334589E+06  0.1042993E+07  0.5990262E+06
  0.3900000E+01  0.2145952E+06  0.1330062E+06  0.5185552E-02 -0.3168540E-02  0.1979136E-01 -0.3355979E-02 -0.1056990E+00  0.2004122E-01  0.1254138E+06  0.1322492E+06  0.1042993E+07  0.5897045E+06
  0.4000000E+01  0.2145952E+06  0.1281682E+06  0.5185552E-02 -0.3288388E-02  0.1979136E-01 -0.2983085E-02 -0.1056990E+00  0.1893764E-01  0.1254138E+06  0.1273055E+06  0.1042993E+07  0.5638946E+06
  0.4100000E+01  0.2145952E+06  0.1200398E+06  0.5185552E-02 -0.3376147E-02  0.1979136E-01 -0.2619235E-02 -0.1056990E+00  0.1781400E-01  0.1254138E+06  0.1190772E+06  0.1042993E+07  0.5236768E+06
  0.4200000E+01  0.2145952E+06  0.1091343E+06  0.5185552E-02 -0.3422213E-02  0.1979136E-01 -0.2267448E-02 -0.1056990E+00  0.1666070E-01  0.1254138E+06  0.1080937E+06  0.1042993E+07  0.4714796E+06
  0.4300000E+01  0.2145952E+06  0.9602322E+05  0.5185552E-02 -0.3417807E-02  0.1979136E-01 -0.1930095E-02 -0.1056990E+00  0.1546725E-01  0.1254138E+06  0.9494129E+05  0.1042993E+07  0.4099759E+06
  0.4400000E+01  0.2145952E+06  0.8131277E+05  0.5185552E-02 -0.3355380E-02  0.1979136E-01 -0.1608939E-02 -0.1056990E+00  0.1422338E-01  0.1254138E+06  0.8023888E+05  0.1042993E+07  0.3419741E+06
  0.4500000E+01  0.2145952E+06  0.6562106E+05  0.5185552E-02 -0.3228990E-02  0.1979136E-01 -0.1305229E-02 -0.1056990E+00  0.1292019E-01  0.1254138E+06  0.6461469E+05  0.1042993E+07  0.2703116E+06
  0.4600000E+01  0.2145952E+06  0.4955546E+05  0.5185552E-02 -0.3034622E-02  0.1979136E-01 -0.1019793E-02 -0.1056990E+00  0.1155114E-01  0.1254138E+06  0.4868297E+05  0.1042993E+07  0.1977508E+06
  0.4700000E+01  0.2145952E+06  0.3369150E+05  0.5185552E-02 -0.2770432E-02  0.1979136E-01 -0.7531173E-03 -0.1056990E+00  0.1011296E-01  0.1254138E+06  0.3302266E+05  0.1042993E+07  0.1268839E+06
  0.4800000E+01  0.2145952E+06  0.1855457E+05  0.5185552E-02 -0.2436944E-02  0.1979136E-01 -0.5054623E-03 -0.1056990E+00  0.8606374E-02  0.1254138E+06  0.1815870E+05  0.1042993E+07  0.6004912E+05
  0.4900000E+01  0.2145952E+06  0.4603502E+04  0.5185552E-02 -0.2037106E-02  0.1979136E-01 -0.2769118E-03 -0.1056990E+00  0.7036514E-02  0.1254138E+06  0.4545883E+04  0.1042993E+07 -0.7402495E+03
  0.5000000E+01  0.2145952E+06 -0.7781597E+04  0.5185552E-02 -0.1576317E-02  0.1979136E-01 -0.6747165E-04 -0.1056990E+00  0.5413213E-02  0.1254138E+06 -0.7443535E+04  0.1042993E+07 -0.5385117E+05
  0.5100000E+01  0.2145952E+06 -0.1830838E+05  0.5185552E-02 -0.1062328E-02  0.1979136E-01  0.1228793E-03 -0.1056990E+00  0.3750979E-02  0.1254138E+06 -0.1752816E+05  0.1042993E+07 -0.9806577E+05
  0.5200000E+01  0.2145952E+06 -0.2677770E+05  0.5185552E-02 -0.5050513E-03  0.1979136E-01  0.2941481E-03 -0.1056990E+00  0.2068722E-02  0.1254138E+06 -0.2552279E+05  0.1042993E+07 -0.1326042E+06
  0.5300000E+01  0.2145952E+06 -0.3308438E+05  0.5185552E-02  0.8368104E-04  0.1979136E-01  0.4462915E-03 -0.1056990E+00  0.3893065E-03  0.1254138E+06 -0.3133832E+05  0.1042993E+07 -0.1571226E+06
  0.5400000E+01  0.2145952E+06 -0.3721554E+05  0.5185552E-02  0.6904721E-03  0.1979136E-01  0.5792232E-03 -0.1056990E+00 -0.1261239E-02  0.1254138E+06 -0.3497961E+05  0.1042993E+07 -0.1717012E+06
  0.5500000E+01  0.2145952E+06 -0.3924434E+05  0.5185552E-02  0.1300752E-02  0.1979136E-01  0.6928166E-03 -0.1056990E+00 -0.2854624E-02  0.1254138E+06 -0.3653830E+05  0.1042993E+07 -0.1768105E+06
  0.5600000E+01  0.2145952E+06 -0.3932175E+05  0.5185552E-02  0.1899232E-02  0.1979136E-01  0.7869337E-03 -0.1056990E+00 -0.4361332E-02  0.1254138E+06 -0.3618387E+05  0.1042993E+07 -0.1732692E+06
  0.5700000E+01  0.2145952E+06 -0.3766458E+05  0.5185552E-02  0.2470394E-02  0.1979136E-01  0.8614767E-03 -0.1056990E+00 -0.5751896E-02  0.1254138E+06 -0.3415087E+05  0.1042993E+07 -0.1621853E+06
  0.5800000E+01  0.2145952E+06 -0.3454277E+05  0.5185552E-02  0.2998964E-02  0.1979136E-01  0.9164288E-03 -0.1056990E+00 -0.6997999E-02  0.1254138E+06 -0.3072533E+05  0.1042993E+07 -0.1448940E+06
  0.5900000E+01  0.2145952E+06 -0.3026464E+05  0.5185552E-02  0.3470454E-02  0.1979136E-01  0.9519334E-03 -0.1056990E+00 -0.8073880E-02  0.1254138E+06 -0.2622945E+05  0.1042993E+07 -0.1228865E+06
  0.6000000E+01  0.2145952E+06 -0.2516151E+05  0.5185552E-02  0.3871620E-02  0.1979136E-01  0.9683549E-03 -0.1056990E+00 -0.8957450E-02  0.1254138E+06 -0.2100552E+05  0.1042993E+07 -0.9773788E+05
  0.6100000E+01  0.2145952E+06 -0.1957227E+05  0.5185552E-02  0.4190922E-02  0.1979136E-01  0.9663524E-03 -0.1056990E+00 -0.9631460E-02  0.1254138E+06 -0.1539996E+05  0.1042993E+07 -0.7103435E+05
  0.6200000E+01  0.2145952E+06 -0.1382864E+05  0.5185552E-02  0.4418918E-02  0.1979136E-01  0.9469408E-03 -0.1056990E+00 -0.1008443E-01  0.1254138E+06 -0.9748395E+04  0.1042993E+07 -0.4430515E+05
  0.6300000E+01  0.2145952E+06 -0.8241816E+04  0.5185552E-02  0.4548604E-02  0.1979136E-01  0.9115507E-03 -0.1056990E+00 -0.1031142E-01  0.1254138E+06 -0.4361885E+04  0.1042993E+07 -0.1896144E+05
  0.6400000E+01  0.2145952E+06 -0.3089891E+04  0.5185552E-02  0.4575674E-02  0.1979136E-01  0.8620635E-03 -0.1056990E+00 -0.1031461E-01  0.1254138E+06  0.4855941E+03  0.1042993E+07  0.3760254E+04
  0.6500000E+01  0.2145952E+06  0.1391499E+04  0.5185552E-02  0.4498700E-02  0.1979136E-01  0.8008523E-03 -0.1056990E+00 -0.1010358E-01  0.1254138E+06  0.4566319E+04  0.1042993E+07  0.2283888E+05
  0.6600000E+01  0.2145952E+06  0.5017379E+04  0.5185552E-02  0.4319212E-02  0.1979136E-01  0.7307708E-03 -0.1056990E+00 -0.9695310E-02  0.1254138E+06  0.7706842E+04  0.1042993E+07  0.3750409E+05
  0.6700000E+01  0.2145952E+06  0.7657862E+04  0.5185552E-02  0.4041685E-02  0.1979136E-01  0.6551466E-03 -0.1056990E+00 -0.9113888E-02  0.1254138E+06  0.9791921E+04  0.1042993E+07  0.4725302E+05
  0.6800000E+01  0.2145952E+06  0.9241080E+04  0.5185552E-02  0.3673458E-02  0.1979136E-01  0.5777454E-03 -0.1056990E+00 -0.8390044E-02  0.1254138E+06  0.1076692E+05  0.1042993E+07  0.5185999E+05
  0.6900000E+01  0.2145952E+06  0.9752372E+04  0.5185552E-02  0.3224516E-02  0.1979136E-01  0.5026978E-03 -0.1056990E+00 -0.7560237E-02  0.1254138E+06  0.1063634E+05  0.1042993E+07  0.5136869E+05
  0.7000000E+01  0.2145952E+06  0.9232076E+04  0.5185552E-02  0.2707225E-02  0.1979136E-01  0.4344133E-03 -0.1056990E+00 -0.6665618E-02  0.1254138E+06  0.9460898E+04  0.1042993E+07  0.4607798E+05
  0.7100000E+01  0.2145952E+06  0.7770320E+04  0.5185552E-02  0.2135972E-02  0.1979136E-01  0.3774692E-03 -0.1056990E+00 -0.5750733E-02  0.1254138E+06  0.7351454E+04  0.1042993E+07  0.3651309E+05
  0.7200000E+01  0.2145952E+06  0.5499939E+04  0.5185552E-02  0.1526759E-02  0.1979136E-01  0.3364843E-03 -0.1056990E+00 -0.4862118E-02  0.1254138E+06  0.4461276E+04  0.1042993E+07  0.2338975E+05
  0.7300000E+01  0.2145952E+06  0.2588365E+04  0.5185552E-02  0.8967334E-03  0.1979136E-01  0.3159701E-03 -0.1056990E+00 -0.4046667E-02  0.1254138E+06  0.9770062E+03  0.1042993E+07  0.7572199E+04
  0.7400000E+01  0.2145952E+06 -0.7721389E+03  0.5185552E-02  0.2636694E-03  0.1979136E-01  0.3201658E-03 -0.1056990E+00 -0.3349991E-02  0.1254138E+06 -0.2891708E+04  0.1042993E+07 -0.9974170E+04
  0.7500000E+01  0.2145952E+06 -0.4374767E+04  0.5185552E-02 -0.3545467E-03  0.1979136E-01  0.3528836E-03 -0.1056990E+00 -0.2814741E-02  0.1254138E+06 -0.6923208E+04  0.1042993E+07 -0.2823338E+05
  0.7600000E+01  0.2145952E+06 -0.8008550E+04  0.5185552E-02 -0.9404293E-03  0.1979136E-01  0.4173373E-03 -0.1056990E+00 -0.2479046E-02  0.1254138E+06 -0.1089468E+05  0.1042993E+07 -0.4618816E+05
  0.7700000E+01  0.2145952E+06 -0.1146824E+05  0.5185552E-02 -0.1477432E-02  0.1979136E-01  0.5159834E-03 -0.1056990E+00 -0.2374929E-02  0.1254138E+06 -0.1459246E+05  0.1042993E+07 -0.6286711E+05
  0.7800000E+01  0.2145952E+06 -0.1456396E+05  0.5185552E-02 -0.1950414E-02  0.1979136E-01  0.6503623E-03 -0.1056990E+00 -0.2526977E-02  0.1254138E+06 -0.1782205E+05  0.1042993E+07 -0.7738928E+05
  0.7900000E+01  0.2145952E+06 -0.1712949E+05  0.5185552E-02 -0.2346095E-02  0.1979136E-01  0.8209869E-03 -0.1056990E+00 -0.2951180E-02  0.1254138E+06 -0.2041632E+05  0.1042993E+07 -0.8900195E+05
  0.8000000E+01  0.2145952E+06 -0.1902911E+05  0.5185552E-02 -0.2653433E-02  0.1979136E-01  0.1027213E-02 -0.1056990E+00 -0.3654057E-02  0.1254138E+06 -0.2224250E+05  0.1042993E+07 -0.9711123E+05
  0.8100000E+01  0.2145952E+06 -0.2016268E+05  0.5185552E-02 -0.2863949E-02  0.1979136E-01  0.1267172E-02 -0.1056990E+00 -0.4632020E-02  0.1254138E+06 -0.2320698E+05  0.1042993E+07 -0.1013035E+06
  0.8200000E+01  0.2145952E+06 -0.2046944E+05  0.5185552E-02 -0.2971965E-02  0.1979136E-01  0.1537711E-02 -0.1056990E+00 -0.5871023E-02  0.1254138E+06 -0.2325876E+05  0.1042993E+07 -0.1013604E+06
  0.8300000E+01  0.2145952E+06 -0.1992900E+05  0.5185552E-02 -0.2974766E-02  0.1979136E-01  0.1834407E-02 -0.1056990E+00 -0.7346727E-02  0.1254138E+06 -0.2239009E+05  0.1042993E+07 -0.9726080E+05
  0.8400001E+01  0.2145952E+06 -0.1856156E+05  0.5185552E-02 -0.2872675E-02  0.1979136E-01  0.2151570E-02 -0.1056990E+00 -0.9024748E-02  0.1254138E+06 -0.2063598E+05  0.1042993E+07 -0.8917798E+05
  0.8500000E+01  0.2145952E+06 -0.1642521E+05  0.5185552E-02 -0.2669044E-02  0.1979136E-01  0.2482318E-02 -0.1056990E+00 -0.1086135E-01  0.1254138E+06 -0.1807105E+05  0.1042993E+07 -0.7746427E+05
  0.8600000E+01  0.2145952E+06 -0.1361231E+05  0.5185552E-02 -0.2370134E-02  0.1979136E-01  0.2818715E-02 -0.1056990E+00 -0.1280461E-01  0.1254138E+06 -0.1480509E+05  0.1042993E+07 -0.6263034E+05
  0.8700000E+01  0.2145952E+06 -0.1024450E+05  0.5185552E-02 -0.1984973E-02  0.1979136E-01  0.3151874E-02 -0.1056990E+00 -0.1479547E-01  0.1254138E+06 -0.1097740E+05  0.1042993E+07 -0.4531896E+05
  0.8800000E+01  0.2145952E+06 -0.6465949E+04  0.5185552E-02 -0.1525049E-02  0.1979136E-01  0.3472200E-02 -0.1056990E+00 -0.1676957E-01  0.1254138E+06 -0.6749381E+04  0.1042993E+07 -0.2627034E+05
  0.8900001E+01  0.2145952E+06 -0.2436576E+04  0.5185552E-02 -0.1004038E-02  0.1979136E-01  0.3769560E-02 -0.1056990E+00 -0.1865876E-01  0.1254138E+06 -0.2297012E+04  0.1042993E+07 -0.6288222E+04
  0.9000000E+01  0.2145952E+06  0.1675705E+04  0.5185552E-02 -0.4373946E-03  0.1979136E-01  0.4033554E-02 -0.1056990E+00 -0.2039313E-01  0.1254138E+06  0.2197431E+04  0.1042993E+07  0.1379872E+05
  0.9100000E+01  0.2145952E+06  0.5702640E+04  0.5185552E-02  0.1580757E-03  0.1979136E-01  0.4253802E-02 -0.1056990E+00 -0.2190306E-01  0.1254138E+06  0.6553598E+04  0.1042993E+07  0.3317398E+05
  0.9200000E+01  0.2145952E+06  0.9483183E+04  0.5185552E-02  0.7646471E-03  0.1979136E-01  0.4420193E-02 -0.1056990E+00 -0.2312119E-01  0.1254138E+06  0.1060096E+05  0.1042993E+07  0.5106906E+05
  0.9300000E+01  0.2145952E+06  0.1287000E+05  0.5185552E-02  0.1364190E-02  0.1979136E-01  0.4523208E-02 -0.1056990E+00 -0.2398452E-01  0.1254138E+06  0.1418568E+05  0.1042993E+07  0.6679462E+05
  0.9400001E+01  0.2145952E+06  0.1573584E+05  0.5185552E-02  0.1938618E-02  0.1979136E-01  0.4554190E-02 -0.1056990E+00 -0.2443629E-01  0.1254138E+06  0.1717709E+05  0.1042993E+07  0.7976959E+05
  0.9500000E+01  0.2145952E+06  0.1797871E+05  0.5185552E-02  0.2470373E-02  0.1979136E-01  0.4505643E-02 -0.1056990E+00 -0.2442791E-01  0.1254138E+06  0.1947288E+05  0.1042993E+07  0.8954419E+05
  0.9600000E+01  0.2145952E+06  0.1952477E+05  0.5185552E-02  0.2942913E-02  0.1979136E-01  0.4371474E-02 -0.1056990E+00 -0.2392045E-01  0.1254138E+06  0.2100195E+05  0.1042993E+07  0.9581229E+05
  0.9700000E+01  0.2145952E+06  0.2033123E+05  0.5185552E-02  0.3341096E-02  0.1979136E-01  0.4147248E-02 -0.1056990E+00 -0.2288616E-01  0.1254138E+06  0.2172699E+05  0.1042993E+07  0.9842277E+05
  0.9800000E+01  0.2145952E+06  0.2038732E+05  0.5185552E-02  0.3651602E-02  0.1979136E-01  0.3830373E-02 -0.1056990E+00 -0.2130938E-01  0.1254138E+06  0.2164518E+05  0.1042993E+07  0.9738169E+05
  0.9900001E+01  0.2145952E+06  0.1971319E+05  0.5185552E-02  0.3863252E-02  0.1979136E-01  0.3420278E-02 -0.1056990E+00 -0.1918754E-01  0.1254138E+06  0.2078665E+05  0.1042993E+07  0.9284470E+05
  0.1000000E+02  0.2145952E+06  0.1835843E+05  0.5185552E-02  0.3967292E-02  0.1979136E-01  0.2918520E-02 -0.1056990E+00 -0.1653149E-01  0.1254138E+06  0.1921244E+05  0.1042993E+07  0.8510709E+05
Zone t="DoF    2",I=   100,F=POINT
  0.1000000E+00 -0.1353536E-02  0.9797577E-02  0.1067399E+06  0.1486582E+06  0.2503514E+05  0.4612806E+05 -0.1845162E+06 -0.3745832E+06  0.4793058E-02  0.9851765E-02  0.6673340E-02  0.3759201E-01
  0.2000000E+00 -0.1353536E-02  0.9588728E-02  0.1067399E+06  0.1431343E+06  0.2503514E+05  0.4512093E+05 -0.1845162E+06 -0.3638992E+06  0.4793058E-02  0.9694517E-02  0.6673340E-02  0.3660399E-01
  0.3000000E+00 -0.1353536E-02  0.9241717E-02  0.1067399E+06  0.1341073E+06  0.2503514E+05  0.4346517E+05 -0.1845162E+06 -0.3463937E+06  0.4793058E-02  0.9431305E-02  0.6673340E-02  0.3496910E-01
  0.4000000E+00 -0.1353536E-02  0.8758297E-02  0.1067399E+06  0.1218403E+06  0.2503514E+05  0.4119436E+05 -0.1845162E+06 -0.3225088E+06  0.4793058E-02  0.9060656E-02  0.6673340E-02  0.3270520E-01
  0.5000000E+00 -0.1353536E-02  0.8141194E-02  0.1067399E+06  0.1066896E+06  0.2503514E+05  0.3835432E+05 -0.1845162E+06 -0.2928454E+06  0.4793058E-02  0.8580931E-02  0.6673340E-02  0.2983768E-01
  0.6000000E+00 -0.1353536E-02  0.7394356E-02  0.1067399E+06  0.8909342E+05  0.2503514E+05  0.3500203E+05 -0.1845162E+06 -0.2581445E+06  0.4793058E-02  0.7990723E-02  0.6673340E-02  0.2639975E-01
  0.7000000E+00 -0.1353536E-02  0.6523249E-02  0.1067399E+06  0.6955779E+05  0.2503514E+05  0.3120416E+05 -0.1845162E+06 -0.2192665E+06  0.4793058E-02  0.7289321E-02  0.6673340E-02  0.2243278E-01
  0.8000000E+00 -0.1353536E-02  0.5535154E-02  0.1067399E+06  0.4864027E+05  0.2503514E+05  0.2703544E+05 -0.1845162E+06 -0.1771648E+06  0.4793058E-02  0.6477220E-02  0.6673340E-02  0.1798658E-01
  0.9000000E+00 -0.1353536E-02  0.4439475E-02  0.1067399E+06  0.2693253E+05  0.2503514E+05  0.2257688E+05 -0.1845162E+06 -0.1328591E+06  0.4793058E-02  0.5556644E-02  0.6673340E-02  0.1311970E-01
  0.1000000E+01 -0.1353536E-02  0.3247995E-02  0.1067399E+06  0.5041479E+04  0.2503514E+05  0.1791378E+05 -0.1845162E+06 -0.8740533E+05  0.4793058E-02  0.4532038E-02  0.6673340E-02  0.7899520E-02
  0.1100000E+01 -0.1353536E-02  0.1975087E-02  0.1067399E+06 -0.1642965E+05  0.2503514E+05  0.1313374E+05 -0.1845162E+06 -0.4186593E+05  0.4793058E-02  0.3410512E-02  0.6673340E-02  0.2402170E-02
  0.1200000E+01 -0.1353536E-02  0.6378371E-03  0.1067399E+06 -0.3689985E+05  0.2503514E+05  0.8324539E+04 -0.1845162E+06  0.2719988E+04  0.4793058E-02  0.2202194E-02  0.6673340E-02 -0.3287691E-02
  0.1300000E+01 -0.1353536E-02 -0.7439361E-03  0.1067399E+06 -0.5582810E+05  0.2503514E+05  0.3572177E+04 -0.1845162E+06  0.4536539E+05  0.4793058E-02  0.9204668E-03  0.6673340E-02 -0.9077457E-02
  0.1400000E+01 -0.1353536E-02 -0.2147779E-02  0.1067399E+06 -0.7272952E+05  0.2503514E+05 -0.1041094E+04 -0.1845162E+06  0.8516180E+05  0.4793058E-02 -0.4179344E-03  0.6673340E-02 -0.1486737E-01
  0.1500000E+01 -0.1353536E-02 -0.3548844E-02  0.1067399E+06 -0.8718956E+05  0.2503514E+05 -0.5438588E+04 -0.1845162E+06  0.1213031E+06  0.4793058E-02 -0.1792989E-02  0.6673340E-02 -0.2055177E-01
  0.1600000E+01 -0.1353536E-02 -0.4920246E-02  0.1067399E+06 -0.9887548E+05  0.2503514E+05 -0.9550757E+04 -0.1845162E+06  0.1531053E+06  0.4793058E-02 -0.3181613E-02  0.6673340E-02 -0.2602049E-01
  0.1700000E+01 -0.1353536E-02 -0.6233571E-02  0.1067399E+06 -0.1075452E+06  0.2503514E+05 -0.1331662E+05 -0.1845162E+06  0.1800228E+06  0.4793058E-02 -0.4558060E-02  0.6673340E-02 -0.3116071E-01
  0.1800000E+01 -0.1353536E-02 -0.7459512E-02  0.1067399E+06 -0.1130531E+06  0.2503514E+05 -0.1668491E+05 -0.1845162E+06  0.2016595E+06  0.4793058E-02 -0.5894489E-02  0.6673340E-02 -0.3585915E-01
  0.1900000E+01 -0.1353536E-02 -0.8568609E-02  0.1067399E+06 -0.1153520E+06  0.2503514E+05 -0.1961488E+05 -0.1845162E+06  0.2177755E+06  0.4793058E-02 -0.7161670E-02  0.6673340E-02 -0.4000437E-01
  0.2000000E+01 -0.1353536E-02 -0.9532090E-02  0.1067399E+06 -0.1144928E+06  0.2503514E+05 -0.2207694E+05 -0.1845162E+06  0.2282884E+06  0.4793058E-02 -0.8329836E-02  0.6673340E-02 -0.4348955E-01
  0.2100000E+01 -0.1353536E-02 -0.1032277E-01  0.1067399E+06 -0.1106201E+06  0.2503514E+05 -0.2405287E+05 -0.1845162E+06  0.2332703E+06  0.4793058E-02 -0.9369610E-02  0.6673340E-02 -0.4621510E-01
  0.2200000E+01 -0.1353536E-02 -0.1091597E-01  0.1067399E+06 -0.1039654E+06  0.2503514E+05 -0.2553573E+05 -0.1845162E+06  0.2329395E+06  0.4793058E-02 -0.1025302E-01  0.6673340E-02 -0.4809173E-01
  0.2300000E+01 -0.1353536E-02 -0.1129046E-01  0.1067399E+06 -0.9483679E+05  0.2503514E+05 -0.2652962E+05 -0.1845162E+06  0.2276485E+06  0.4793058E-02 -0.1095451E-01  0.6673340E-02 -0.4904318E-01
  0.2400000E+01 -0.1353536E-02 -0.1142936E-01  0.1067399E+06 -0.8360770E+05  0.2503514E+05 -0.2704899E+05 -0.1845162E+06  0.2178678E+06  0.4793058E-02 -0.1145198E-01  0.6673340E-02 -0.4900906E-01
  0.2500000E+01 -0.1353536E-02 -0.1132092E-01  0.1067399E+06 -0.7070242E+05  0.2503514E+05 -0.2711780E+05 -0.1845162E+06  0.2041669E+06  0.4793058E-02 -0.1172770E-01  0.6673340E-02 -0.4794740E-01
  0.2600000E+01 -0.1353536E-02 -0.1095921E-01  0.1067399E+06 -0.5658105E+05  0.2503514E+05 -0.2676844E+05 -0.1845162E+06  0.1871929E+06  0.4793058E-02 -0.1176917E-01  0.6673340E-02 -0.4583697E-01
  0.2700000E+01 -0.1353536E-02 -0.1034471E-01  0.1067399E+06 -0.4172349E+05  0.2503514E+05 -0.2604046E+05 -0.1845162E+06  0.1676469E+06  0.4793058E-02 -0.1156978E-01  0.6673340E-02 -0.4267910E-01
  0.2800000E+01 -0.1353536E-02 -0.9484627E-02  0.1067399E+06 -0.2661322E+05  0.2503514E+05 -0.2497922E+05 -0.1845162E+06  0.1462604E+06  0.4793058E-02 -0.1112940E-01  0.6673340E-02 -0.3849914E-01
  0.2900000E+01 -0.1353536E-02 -0.8393046E-02  0.1067399E+06 -0.1172133E+05  0.2503514E+05 -0.2363433E+05 -0.1845162E+06  0.1237711E+06  0.4793058E-02 -0.1045460E-01  0.6673340E-02 -0.3334717E-01
  0.3000000E+01 -0.1353536E-02 -0.7090916E-02  0.1067399E+06  0.2508162E+04  0.2503514E+05 -0.2205821E+05 -0.1845162E+06  0.1009001E+06  0.4793058E-02 -0.9558793E-02  0.6673340E-02 -0.2729840E-01
  0.3100000E+01 -0.1353536E-02 -0.5605693E-02  0.1067399E+06  0.1567229E+05  0.2503514E+05 -0.2030450E+05 -0.1845162E+06  0.7832940E+05  0.4793058E-02 -0.8462005E-02  0.6673340E-02 -0.2045238E-01
  0.3200000E+01 -0.1353536E-02 -0.3970863E-02  0.1067399E+06  0.2742047E+05  0.2503514E+05 -0.1842661E+05 -0.1845162E+06  0.5668380E+05  0.4793058E-02 -0.7190520E-02  0.6673340E-02 -0.1293212E-01
  0.3300000E+01 -0.1353536E-02 -0.2225160E-02  0.1067399E+06  0.3746442E+05  0.2503514E+05 -0.1647632E+05 -0.1845162E+06  0.3651306E+05  0.4793058E-02 -0.5776183E-02  0.6673340E-02 -0.4881886E-02
  0.3400000E+01 -0.1353536E-02 -0.4115939E-03  0.1067399E+06  0.4558517E+05  0.2503514E+05 -0.1450249E+05 -0.1845162E+06  0.1827916E+05  0.4793058E-02 -0.4255529E-02  0.6673340E-02  0.3535341E-02
  0.3500000E+01 -0.1353536E-02  0.1423639E-02  0.1067399E+06  0.5163738E+05  0.2503514E+05 -0.1255002E+05 -0.1845162E+06  0.2346548E+04  0.4793058E-02 -0.2668735E-02  0.6673340E-02  0.1214103E-01
  0.3600000E+01 -0.1353536E-02  0.3232514E-02  0.1067399E+06  0.5555145E+05  0.2503514E+05 -0.1065880E+05 -0.1845162E+06 -0.1102428E+05  0.4793058E-02 -0.1058347E-02  0.6673340E-02  0.2074531E-01
  0.3700000E+01 -0.1353536E-02  0.4966505E-02  0.1067399E+06  0.5733233E+05  0.2503514E+05 -0.8863116E+04 -0.1845162E+06 -0.2167850E+05  0.4793058E-02  0.5320333E-03  0.6673340E-02  0.2915102E-01
  0.3800000E+01 -0.1353536E-02  0.6578109E-02  0.1067399E+06  0.5705628E+05  0.2503514E+05 -0.7191023E+04 -0.1845162E+06 -0.2956582E+05  0.4793058E-02  0.2059202E-02  0.6673340E-02  0.3715892E-01
  0.3900000E+01 -0.1353536E-02  0.8022275E-02  0.1067399E+06  0.5486491E+05  0.2503514E+05 -0.5664119E+04 -0.1845162E+06 -0.3473523E+05  0.4793058E-02  0.3481774E-02  0.6673340E-02  0.4457248E-01
  0.4000000E+01 -0.1353536E-02  0.9257852E-02  0.1067399E+06  0.5095738E+05  0.2503514E+05 -0.4297452E+04 -0.1845162E+06 -0.3732670E+05  0.4793058E-02  0.4761590E-02  0.6673340E-02  0.5120337E-01
  0.4100000E+01 -0.1353536E-02  0.1024895E-01  0.1067399E+06  0.4558077E+05  0.2503514E+05 -0.3099628E+04 -0.1845162E+06 -0.3756036E+05  0.4793058E-02  0.5865033E-02  0.6673340E-02  0.5687656E-01
  0.4200000E+01 -0.1353536E-02  0.1096613E-01  0.1067399E+06  0.3901915E+05  0.2503514E+05 -0.2073156E+04 -0.1845162E+06 -0.3572312E+05  0.4793058E-02  0.6764205E-02  0.6673340E-02  0.6143548E-01
  0.4300000E+01 -0.1353536E-02  0.1138745E-01  0.1067399E+06  0.3158190E+05  0.2503514E+05 -0.1214955E+04 -0.1845162E+06 -0.3215373E+05  0.4793058E-02  0.7437889E-02  0.6673340E-02  0.6474673E-01
  0.4400000E+01 -0.1353536E-02  0.1149926E-01  0.1067399E+06  0.2359140E+05  0.2503514E+05 -0.5169352E+03 -0.1845162E+06 -0.2722704E+05  0.4793058E-02  0.7872347E-02  0.6673340E-02  0.6670445E-01
  0.4500000E+01 -0.1353536E-02  0.1129675E-01  0.1067399E+06  0.1537097E+05  0.2503514E+05  0.3317448E+02 -0.1845162E+06 -0.2133737E+05  0.4793058E-02  0.8061780E-02  0.6673340E-02  0.6723393E-01
  0.4600000E+01 -0.1353536E-02  0.1078425E-01  0.1067399E+06  0.7233246E+04  0.2503514E+05  0.4510250E+03 -0.1845162E+06 -0.1488252E+05  0.4793058E-02  0.8008556E-02  0.6673340E-02  0.6629440E-01
  0.4700000E+01 -0.1353536E-02  0.9975187E-02  0.1067399E+06 -0.5306499E+03  0.2503514E+05  0.7547559E+03 -0.1845162E+06 -0.8248381E+04  0.4793058E-02  0.7723140E-02  0.6673340E-02  0.6388124E-01
  0.4800000E+01 -0.1353536E-02  0.8891798E-02  0.1067399E+06 -0.7660443E+04  0.2503514E+05  0.9640439E+03 -0.1845162E+06 -0.1794808E+04  0.4793058E-02  0.7223718E-02  0.6673340E-02  0.6002701E-01
  0.4900000E+01 -0.1353536E-02  0.7564495E-02  0.1067399E+06 -0.1393473E+05  0.2503514E+05  0.1099250E+04 -0.1845162E+06  0.4156510E+04  0.4793058E-02  0.6535535E-02  0.6673340E-02  0.5480140E-01
  0.5000000E+01 -0.1353536E-02  0.6031025E-02  0.1067399E+06 -0.1917715E+05  0.2503514E+05  0.1180523E+04 -0.1845162E+06  0.9332403E+04  0.4793058E-02  0.5689981E-02  0.6673340E-02  0.4831034E-01
  0.5100000E+01 -0.1353536E-02  0.4335348E-02  0.1067399E+06 -0.2326033E+05  0.2503514E+05  0.1227060E+04 -0.1845162E+06  0.1351544E+05  0.4793058E-02  0.4723470E-02  0.6673340E-02  0.4069395E-01