 VARIABLES="Time (s)"
"IRF    1"
"IRF    2"
"IRF    3"
"IRF    4"
"IRF    5"
"IRF    6"
Zone t="beta  0.0000000E+00",I=   199,F=POINT
 -0.9800000E+01 -0.1079222E+05  0.8887809E+03 -0.3936736E+04  0.1881371E+05 -0.1148611E+05 -0.5211800E+05
 -0.9700000E+01 -0.1283853E+05  0.3146872E+03 -0.4979650E+04  0.2368137E+05 -0.1393818E+05 -0.5989502E+05
 -0.9600000E+01 -0.1448810E+05 -0.3659904E+03 -0.6034389E+04  0.2866148E+05 -0.1598923E+05 -0.6570409E+05
 -0.9500000E+01 -0.1565418E+05 -0.1142646E+04 -0.7086458E+04  0.3369593E+05 -0.1753568E+05 -0.6922177E+05
 -0.9400001E+01 -0.1626817E+05 -0.2000514E+04 -0.8122499E+04  0.3872868E+05 -0.1849244E+05 -0.7021467E+05
 -0.9300000E+01 -0.1628336E+05 -0.2921434E+04 -0.9131036E+04  0.4370887E+05 -0.1879730E+05 -0.6855306E+05
 -0.9200000E+01 -0.1567779E+05 -0.3884540E+04 -0.1010295E+05  0.4859313E+05 -0.1841447E+05 -0.6422019E+05
 -0.9100000E+01 -0.1445644E+05 -0.4866830E+04 -0.1103182E+05  0.5334669E+05 -0.1733758E+05 -0.5731847E+05
 -0.9000000E+01 -0.1265185E+05 -0.5844325E+04 -0.1191433E+05  0.5794612E+05 -0.1559067E+05 -0.4806811E+05
 -0.8900001E+01 -0.1032383E+05 -0.6792999E+04 -0.1275038E+05  0.6237971E+05 -0.1322854E+05 -0.3680267E+05
 -0.8800000E+01 -0.7558242E+04 -0.7689837E+04 -0.1354307E+05  0.6664870E+05 -0.1033575E+05 -0.2395946E+05
 -0.8700000E+01 -0.4463681E+04 -0.8513891E+04 -0.1429867E+05  0.7076699E+05 -0.7023553E+04 -0.1006237E+05
 -0.8600000E+01 -0.1167893E+04 -0.9247168E+04 -0.1502617E+05  0.7476030E+05 -0.3426325E+04  0.4296830E+04
 -0.8500000E+01  0.2186864E+04 -0.9875733E+04 -0.1573706E+05  0.7866616E+05  0.3032312E+03  0.1848083E+05
 -0.8400001E+01  0.5450069E+04 -0.1039021E+05 -0.1644459E+05  0.8253102E+05  0.4000659E+04  0.3183555E+05
 -0.8300000E+01  0.8468818E+04 -0.1078653E+05 -0.1716331E+05  0.8640906E+05  0.7496014E+04  0.4371620E+05
 -0.8200000E+01  0.1109454E+05 -0.1106621E+05 -0.1790827E+05  0.9035923E+05  0.1062132E+05  0.5351652E+05
 -0.8100000E+01  0.1318996E+05 -0.1123652E+05 -0.1869440E+05  0.9444290E+05  0.1321819E+05  0.6069795E+05
 -0.8000000E+01  0.1463545E+05 -0.1131035E+05 -0.1953560E+05  0.9872052E+05  0.1514495E+05  0.6481491E+05
 -0.7900000E+01  0.1533497E+05 -0.1130577E+05 -0.2044415E+05  0.1032488E+06  0.1628359E+05  0.6553847E+05
 -0.7800000E+01  0.1522142E+05 -0.1124554E+05 -0.2143012E+05  0.1080779E+06  0.1654592E+05  0.6267555E+05
 -0.7700000E+01  0.1426089E+05 -0.1115608E+05 -0.2250066E+05  0.1132485E+06  0.1587875E+05  0.5618362E+05
 -0.7600000E+01  0.1245535E+05 -0.1106666E+05 -0.2365969E+05  0.1187901E+06  0.1426747E+05  0.4617800E+05
 -0.7500000E+01  0.9844414E+04 -0.1100791E+05 -0.2490755E+05  0.1247185E+06  0.1173846E+05  0.3293424E+05
 -0.7400000E+01  0.6505038E+04 -0.1101069E+05 -0.2624093E+05  0.1310346E+06  0.8359593E+04  0.1688284E+05
 -0.7300000E+01  0.2549896E+04 -0.1110459E+05 -0.2765286E+05  0.1377245E+06  0.4238926E+04 -0.1402931E+04
 -0.7200000E+01 -0.1875850E+04 -0.1131662E+05 -0.2913298E+05  0.1447585E+06 -0.4781014E+03 -0.2122504E+05
 -0.7100000E+01 -0.6599579E+04 -0.1166976E+05 -0.3066786E+05  0.1520927E+06 -0.5613651E+04 -0.4178615E+05
 -0.7000000E+01 -0.1142725E+05 -0.1218184E+05 -0.3224165E+05  0.1596703E+06 -0.1096347E+05 -0.6221847E+05
 -0.6900000E+01 -0.1615104E+05 -0.1286444E+05 -0.3383663E+05  0.1674235E+06 -0.1630504E+05 -0.8161948E+05
 -0.6800000E+01 -0.2055754E+05 -0.1372207E+05 -0.3543412E+05  0.1752764E+06 -0.2140599E+05 -0.9908751E+05
 -0.6700000E+01 -0.2443682E+05 -0.1475175E+05 -0.3701530E+05  0.1831488E+06 -0.2603405E+05 -0.1137618E+06
 -0.6600000E+01 -0.2759165E+05 -0.1594257E+05 -0.3856209E+05  0.1909588E+06 -0.2996689E+05 -0.1248604E+06
 -0.6500000E+01 -0.2984660E+05 -0.1727608E+05 -0.4005816E+05  0.1986277E+06 -0.3300230E+05 -0.1317180E+06
 -0.6400000E+01 -0.3105656E+05 -0.1872653E+05 -0.4148968E+05  0.2060832E+06 -0.3496770E+05 -0.1338193E+06
 -0.6300000E+01 -0.3111460E+05 -0.2026180E+05 -0.4284614E+05  0.2132634E+06 -0.3572895E+05 -0.1308284E+06
 -0.6200000E+01 -0.2995856E+05 -0.2184452E+05 -0.4412114E+05  0.2201207E+06 -0.3519824E+05 -0.1226127E+06
 -0.6100000E+01 -0.2757565E+05 -0.2343350E+05 -0.4531274E+05  0.2266238E+06 -0.3333961E+05 -0.1092576E+06
 -0.6000000E+01 -0.2400597E+05 -0.2498530E+05 -0.4642375E+05  0.2327612E+06 -0.3017340E+05 -0.9107501E+05
 -0.5900000E+01 -0.1934348E+05 -0.2645629E+05 -0.4746206E+05  0.2385421E+06 -0.2577807E+05 -0.6860226E+05
 -0.5800000E+01 -0.1373479E+05 -0.2780443E+05 -0.4844024E+05  0.2439969E+06 -0.2028976E+05 -0.4259093E+05
 -0.5700000E+01 -0.7376023E+04 -0.2899135E+05 -0.4937524E+05  0.2491772E+06 -0.1389953E+05 -0.1398745E+05
 -0.5600000E+01 -0.5074282E+03 -0.2998421E+05 -0.5028783E+05  0.2541540E+06 -0.6848234E+04  0.1609468E+05
 -0.5500000E+01  0.6593911E+04 -0.3075764E+05 -0.5120173E+05  0.2590156E+06  0.5806669E+03  0.4641030E+05
 -0.5400000E+01  0.1362385E+05 -0.3129520E+05 -0.5214255E+05  0.2638634E+06  0.8071165E+04  0.7562806E+05
 -0.5300000E+01  0.2026172E+05 -0.3159063E+05 -0.5313638E+05  0.2688077E+06  0.1528558E+05  0.1023773E+06
 -0.5200000E+01  0.2618221E+05 -0.3164888E+05 -0.5420875E+05  0.2739618E+06  0.2187727E+05  0.1253003E+06
 -0.5100000E+01  0.3106845E+05 -0.3148636E+05 -0.5538280E+05  0.2794364E+06  0.2750433E+05  0.1431071E+06
 -0.5000000E+01  0.3462485E+05 -0.3113104E+05 -0.5667792E+05  0.2853322E+06  0.3184368E+05  0.1546298E+06
 -0.4900000E+01  0.3659014E+05 -0.3062182E+05 -0.5810823E+05  0.2917333E+06  0.3460511E+05  0.1588744E+06
 -0.4800000E+01  0.3674935E+05 -0.3000757E+05 -0.5968118E+05  0.2987000E+06  0.3554454E+05  0.1550680E+06
 -0.4700000E+01  0.3494497E+05 -0.2934541E+05 -0.6139606E+05  0.3062615E+06  0.3447642E+05  0.1427019E+06
 -0.4600000E+01  0.3108610E+05 -0.2869878E+05 -0.6324307E+05  0.3144104E+06  0.3128416E+05  0.1215636E+06
 -0.4500000E+01  0.2515596E+05 -0.2813486E+05 -0.6520218E+05  0.3230957E+06  0.2592870E+05  0.9176309E+05
 -0.4400000E+01  0.1721627E+05 -0.2772189E+05 -0.6724287E+05  0.3322201E+06  0.1845409E+05  0.5374390E+05
 -0.4300000E+01  0.7409795E+04 -0.2752600E+05 -0.6932346E+05  0.3416343E+06  0.8990814E+04  0.8287138E+04
 -0.4200000E+01 -0.4040670E+04 -0.2760803E+05 -0.7139145E+05  0.3511372E+06 -0.2244555E+04 -0.4350014E+05
 -0.4100000E+01 -0.1683593E+05 -0.2802036E+05 -0.7338384E+05  0.3604749E+06 -0.1495259E+05 -0.1002073E+06
 -0.4000000E+01 -0.3060693E+05 -0.2880358E+05 -0.7522791E+05  0.3693414E+06 -0.2875722E+05 -0.1601526E+06
 -0.3900000E+01 -0.4492441E+05 -0.2998382E+05 -0.7684254E+05  0.3773837E+06 -0.4321569E+05 -0.2214307E+06
 -0.3800000E+01 -0.5931074E+05 -0.3157000E+05 -0.7813966E+05  0.3842056E+06 -0.5783069E+05 -0.2819655E+06
 -0.3700000E+01 -0.7325412E+05 -0.3355187E+05 -0.7902620E+05  0.3893755E+06 -0.7206525E+05 -0.3395737E+06
 -0.3600000E+01 -0.8622445E+05 -0.3589838E+05 -0.7940618E+05  0.3924353E+06 -0.8535948E+05 -0.3920333E+06
 -0.3500000E+01 -0.9769095E+05 -0.3855695E+05 -0.7918320E+05  0.3929102E+06 -0.9714934E+05 -0.4371575E+06
 -0.3400000E+01 -0.1071393E+06 -0.4145327E+05 -0.7826288E+05  0.3903203E+06 -0.1068852E+06 -0.4728656E+06
 -0.3300000E+01 -0.1140907E+06 -0.4449216E+05 -0.7655580E+05  0.3841941E+06 -0.1140519E+06 -0.4972605E+06
 -0.3200000E+01 -0.1181183E+06 -0.4755887E+05 -0.7397990E+05  0.3740814E+06 -0.1181876E+06 -0.5086941E+06
 -0.3100000E+01 -0.1188643E+06 -0.5052155E+05 -0.7046338E+05  0.3595662E+06 -0.1189013E+06 -0.5058338E+06
 -0.3000000E+01 -0.1160540E+06 -0.5323431E+05 -0.6594713E+05  0.3402824E+06 -0.1158893E+06 -0.4877149E+06
 -0.2900000E+01 -0.1095086E+06 -0.5554093E+05 -0.6038711E+05  0.3159245E+06 -0.1089489E+06 -0.4537872E+06
 -0.2800000E+01 -0.9915428E+05 -0.5727941E+05 -0.5375635E+05  0.2862627E+06 -0.9798889E+05 -0.4039468E+06
 -0.2700000E+01 -0.8502885E+05 -0.5828668E+05 -0.4604677E+05  0.2511519E+06 -0.8303727E+05 -0.3385551E+06
 -0.2600000E+01 -0.6728464E+05 -0.5840404E+05 -0.3727044E+05  0.2105426E+06 -0.6424475E+05 -0.2584439E+06
 -0.2500000E+01 -0.4618768E+05 -0.5748243E+05 -0.2746032E+05  0.1644879E+06 -0.4188455E+05 -0.1649040E+06
 -0.2400000E+01 -0.2211370E+05 -0.5538802E+05 -0.1667097E+05  0.1131496E+06 -0.1634851E+05 -0.5966307E+05
 -0.2300000E+01  0.4460339E+04 -0.5200732E+05 -0.4977990E+04  0.5680026E+05  0.1186143E+05  0.5515668E+05
 -0.2200000E+01  0.3296686E+05 -0.4725239E+05  0.7522250E+04 -0.4175434E+04  0.4214458E+05  0.1770871E+06
 -0.2100000E+01  0.6276281E+05 -0.4106500E+05  0.2071407E+05 -0.6928404E+05  0.7381716E+05  0.3033803E+06
 -0.2000000E+01  0.9314634E+05 -0.3342050E+05  0.3446404E+05 -0.1379282E+06  0.1061303E+06  0.4310812E+06
 -0.1900000E+01  0.1233759E+06 -0.2433075E+05  0.4862298E+05 -0.2094139E+06  0.1382905E+06  0.5571066E+06
 -0.1800000E+01  0.1526913E+06 -0.1384596E+05  0.6302870E+05 -0.2829618E+06  0.1694822E+06  0.6783331E+06
 -0.1700000E+01  0.1803353E+06 -0.2055530E+04  0.7750895E+05 -0.3577201E+06  0.1988910E+06  0.7916841E+06
 -0.1600000E+01  0.2055754E+06  0.1091205E+05  0.9188441E+05 -0.4327787E+06  0.2257277E+06  0.8942166E+06
 -0.1500000E+01  0.2277254E+06  0.2489087E+05  0.1059722E+06 -0.5071872E+06  0.2492512E+06  0.9832066E+06
 -0.1400000E+01  0.2461650E+06  0.3968002E+05  0.1195896E+06 -0.5799718E+06  0.2687907E+06  0.1056226E+07
 -0.1300000E+01  0.2603593E+06  0.5504739E+05  0.1325572E+06 -0.6501550E+06  0.2837661E+06  0.1111213E+07
 -0.1200000E+01  0.2698738E+06  0.7073448E+05  0.1447032E+06 -0.7167756E+06  0.2937052E+06  0.1146533E+07
 -0.1100000E+01  0.2743880E+06  0.8646208E+05  0.1558660E+06 -0.7789071E+06  0.2982586E+06  0.1161024E+07
 -0.1000000E+01  0.2737047E+06  0.1019366E+06  0.1658981E+06 -0.8356785E+06  0.2972099E+06  0.1154028E+07
 -0.9000000E+00  0.2677564E+06  0.1168575E+06  0.1746684E+06 -0.8862904E+06  0.2904831E+06  0.1125413E+07
 -0.8000000E+00  0.2566078E+06  0.1309245E+06  0.1820654E+06 -0.9300337E+06  0.2781451E+06  0.1075576E+07
 -0.7000000E+00  0.2404531E+06  0.1438454E+06  0.1879989E+06 -0.9663028E+06  0.2604041E+06  0.1005427E+07
 -0.6000000E+00  0.2196117E+06  0.1553438E+06  0.1924017E+06 -0.9946090E+06  0.2376040E+06  0.9163674E+06
 -0.5000000E+00  0.1945187E+06  0.1651665E+06  0.1952312E+06 -0.1014590E+07  0.2102143E+06  0.8102446E+06
 -0.4000000E+00  0.1657119E+06  0.1730904E+06  0.1964691E+06 -0.1026019E+07  0.1788172E+06  0.6893025E+06
 -0.3000000E+00  0.1338174E+06  0.1789288E+06  0.1961226E+06 -0.1028805E+07  0.1440906E+06  0.5561171E+06
 -0.2000000E+00  0.9953130E+05  0.1825366E+06  0.1942231E+06 -0.1022998E+07  0.1067890E+06  0.4135234E+06
 -0.1000000E+00  0.6360020E+05  0.1838151E+06  0.1908257E+06 -0.1008785E+07  0.6772222E+05  0.2645388E+06
  0.0000000E+00  0.2680068E+05  0.1827145E+06  0.1860075E+06 -0.9864841E+06  0.2773279E+05  0.1122801E+06
  0.1000000E+00 -0.1008213E+05  0.1792362E+06  0.1798656E+06 -0.9565399E+06 -0.1232740E+05 -0.4011850E+05
  0.2000000E+00 -0.4627560E+05  0.1734329E+06  0.1725150E+06 -0.9195092E+06 -0.5162009E+05 -0.1895877E+06
  0.3000000E+00 -0.8103997E+05  0.1654078E+06  0.1640861E+06 -0.8760509E+06 -0.8934293E+05 -0.3332001E+06
  0.4000000E+00 -0.1136872E+06  0.1553124E+06  0.1547211E+06 -0.8269080E+06 -0.1247502E+06 -0.4682419E+06
  0.5000000E+00 -0.1435981E+06  0.1433427E+06  0.1445718E+06 -0.7728948E+06 -0.1571715E+06 -0.5922759E+06
  0.6000000E+00 -0.1702365E+06  0.1297345E+06  0.1337956E+06 -0.7148749E+06 -0.1860273E+06 -0.7031959E+06
  0.7000000E+00 -0.1931615E+06  0.1147574E+06  0.1225528E+06 -0.6537459E+06 -0.2108424E+06 -0.7992679E+06
  0.8000000E+00 -0.2120356E+06  0.9870809E+05  0.1110030E+06 -0.5904188E+06 -0.2312545E+06 -0.8791616E+06
  0.9000000E+00 -0.2266300E+06  0.8190284E+05  0.9930223E+05 -0.5257996E+06 -0.2470209E+06 -0.9419672E+06
  0.1000000E+01 -0.2368268E+06  0.6466944E+05  0.8760006E+05 -0.4607713E+06 -0.2580193E+06 -0.9872010E+06
  0.1100000E+01 -0.2426177E+06  0.4733893E+05  0.7603673E+05 -0.3961773E+06 -0.2642474E+06 -0.1014799E+07
  0.1200000E+01 -0.2440989E+06  0.3023750E+05  0.6474107E+05 -0.3328051E+06 -0.2658169E+06 -0.1025096E+07
  0.1300000E+01 -0.2414643E+06  0.1367827E+05  0.5382825E+05 -0.2713735E+06 -0.2629460E+06 -0.1018800E+07
  0.1400000E+01 -0.2349953E+06 -0.2046169E+04  0.4339846E+05 -0.2125206E+06 -0.2559478E+06 -0.9969505E+06
  0.1500000E+01 -0.2250487E+06 -0.1667080E+05  0.3353537E+05 -0.1567947E+06 -0.2452167E+06 -0.9608744E+06
  0.1600000E+01 -0.2120429E+06 -0.2996409E+05  0.2430575E+05 -0.1046473E+06 -0.2312135E+06 -0.9121348E+06
  0.1700000E+01 -0.1964433E+06 -0.4173318E+05  0.1575881E+05 -0.5642922E+05 -0.2144492E+06 -0.8524753E+06
  0.1800000E+01 -0.1787463E+06 -0.5182765E+05  0.7926436E+04 -0.1238931E+05 -0.1954667E+06 -0.7837631E+06
  0.1900000E+01 -0.1594641E+06 -0.6014224E+05  0.8237399E+03  0.2732499E+05 -0.1748248E+06 -0.7079321E+06
  0.2000000E+01 -0.1391093E+06 -0.6661817E+05 -0.5550189E+04  0.6266433E+05 -0.1530806E+06 -0.6269275E+06
  0.2100000E+01 -0.1181808E+06 -0.7124317E+05 -0.1121100E+05  0.9367124E+05 -0.1307742E+06 -0.5426541E+06
  0.2200000E+01 -0.9715070E+05 -0.7405016E+05 -0.1618760E+05  0.1204731E+06 -0.1084146E+06 -0.4569315E+06
  0.2300000E+01 -0.7645328E+05 -0.7511484E+05 -0.2052038E+05  0.1432724E+06 -0.8646678E+05 -0.3714509E+06
  0.2400000E+01 -0.5647526E+05 -0.7455211E+05 -0.2425933E+05  0.1623363E+06 -0.6534236E+05 -0.2877428E+06
  0.2500000E+01 -0.3754920E+05 -0.7251134E+05 -0.2746189E+05  0.1779847E+06 -0.4539168E+05 -0.2071528E+06
  0.2600000E+01 -0.1994805E+05 -0.6917109E+05 -0.3019090E+05  0.1905779E+06 -0.2689841E+05 -0.1308205E+06
  0.2700000E+01 -0.3883138E+04 -0.6473295E+05 -0.3251229E+05  0.2005036E+06 -0.1007749E+05 -0.5967292E+05
  0.2800000E+01  0.1049671E+05 -0.5941504E+05 -0.3449315E+05  0.2081648E+06  0.4925179E+04  0.5580436E+04
  0.2900000E+01  0.2310304E+05 -0.5344531E+05 -0.3619961E+05  0.2139670E+06  0.1803036E+05  0.6444130E+05
  0.3000000E+01  0.3390430E+05 -0.4705479E+05 -0.3769496E+05  0.2183068E+06  0.2922086E+05  0.1166119E+06
  0.3100000E+01  0.4292050E+05 -0.4047081E+05 -0.3903801E+05  0.2215613E+06  0.3853544E+05  0.1619790E+06
  0.3200000E+01  0.5021666E+05 -0.3391100E+05 -0.4028168E+05  0.2240792E+06  0.4606107E+05  0.2005920E+06
  0.3300000E+01  0.5589532E+05 -0.2757747E+05 -0.4147173E+05  0.2261724E+06  0.5192427E+05  0.2326411E+06
  0.3400000E+01  0.6008825E+05 -0.2165178E+05 -0.4264587E+05  0.2281102E+06  0.5628145E+05  0.2584293E+06
  0.3500000E+01  0.6294807E+05 -0.1629096E+05 -0.4383323E+05  0.2301146E+06  0.5930953E+05  0.2783479E+06
  0.3600000E+01  0.6463985E+05 -0.1162402E+05 -0.4505399E+05  0.2323575E+06  0.6119617E+05  0.2928492E+06
  0.3700000E+01  0.6533336E+05 -0.7749960E+04 -0.4631926E+05  0.2349600E+06  0.6213123E+05  0.3024226E+06
  0.3800000E+01  0.6519558E+05 -0.4736279E+04 -0.4763158E+05  0.2379923E+06  0.6229815E+05  0.3075716E+06
  0.3900000E+01  0.6438458E+05 -0.2618942E+04 -0.4898522E+05  0.2414766E+06  0.6186727E+05  0.3087951E+06
  0.4000000E+01  0.6304436E+05 -0.1403012E+04 -0.5036710E+05  0.2453901E+06  0.6099003E+05  0.3065704E+06
  0.4100000E+01  0.6130074E+05 -0.1064394E+04 -0.5175766E+05  0.2496704E+06  0.5979485E+05  0.3013423E+06
  0.4200000E+01  0.5925895E+05 -0.1552249E+04 -0.5313205E+05  0.2542204E+06  0.5838435E+05  0.2935137E+06
  0.4300000E+01  0.5700223E+05 -0.2792225E+04 -0.5446145E+05  0.2589158E+06  0.5683428E+05  0.2834414E+06
  0.4400000E+01  0.5459169E+05 -0.4690234E+04 -0.5571425E+05  0.2636114E+06  0.5519390E+05  0.2714354E+06
  0.4500000E+01  0.5206761E+05 -0.7136521E+04 -0.5685770E+05  0.2681490E+06  0.5348746E+05  0.2577608E+06
  0.4600000E+01  0.4945145E+05 -0.1001029E+05 -0.5785906E+05  0.2723646E+06  0.5171737E+05  0.2426434E+06
  0.4700000E+01  0.4674874E+05 -0.1318413E+05 -0.5868698E+05  0.2760949E+06  0.4986758E+05  0.2262749E+06
  0.4800000E+01  0.4395286E+05 -0.1652854E+05 -0.5931293E+05  0.2791850E+06  0.4790864E+05  0.2088240E+06
  0.4900000E+01  0.4104870E+05 -0.1991639E+05 -0.5971209E+05  0.2814938E+06  0.4580199E+05  0.1904426E+06
  0.5000000E+01  0.3801696E+05 -0.2322680E+05 -0.5986445E+05  0.2828996E+06  0.4350557E+05  0.1712762E+06
  0.5100000E+01  0.3483802E+05 -0.2634875E+05 -0.5975547E+05  0.2833033E+06  0.4097843E+05  0.1514722E+06
  0.5200000E+01  0.3149579E+05 -0.2918421E+05 -0.5937687E+05  0.2826337E+06  0.3818551E+05  0.1311867E+06
  0.5300000E+01  0.2798103E+05 -0.3165043E+05 -0.5872668E+05  0.2808479E+06  0.3510175E+05  0.1105911E+06
  0.5400000E+01  0.2429380E+05 -0.3368187E+05 -0.5780967E+05  0.2779327E+06  0.3171518E+05  0.8987422E+05
  0.5500000E+01  0.2044549E+05 -0.3523119E+05 -0.5663695E+05  0.2739053E+06  0.2802935E+05  0.6924519E+05
  0.5600000E+01  0.1645994E+05 -0.3626981E+05 -0.5522595E+05  0.2688113E+06  0.2406475E+05  0.4893208E+05
  0.5700000E+01  0.1237376E+05 -0.3678751E+05 -0.5359963E+05  0.2627231E+06  0.1985926E+05  0.2917945E+05
  0.5800000E+01  0.8235517E+04 -0.3679170E+05 -0.5178603E+05  0.2557370E+06  0.1546723E+05  0.1024280E+05
  0.5900000E+01  0.4104575E+04 -0.3630602E+05 -0.4981716E+05  0.2479693E+06  0.1095806E+05 -0.7617598E+04
  0.6000000E+01  0.4911795E+02 -0.3536844E+05 -0.4772825E+05  0.2395522E+06  0.6413782E+04 -0.2414404E+05
  0.6100000E+01 -0.3856611E+04 -0.3402902E+05 -0.4555646E+05  0.2306294E+06  0.1925735E+04 -0.3909103E+05
  0.6200000E+01 -0.7535377E+04 -0.3234738E+05 -0.4333989E+05  0.2213505E+06 -0.2409183E+04 -0.5223421E+05
  0.6300000E+01 -0.1091004E+05 -0.3039006E+05 -0.4111645E+05  0.2118675E+06 -0.6492395E+04 -0.6337906E+05
  0.6400000E+01 -0.1390703E+05 -0.2822771E+05 -0.3892259E+05  0.2023284E+06 -0.1022786E+05 -0.7236896E+05
  0.6500000E+01 -0.1645989E+05 -0.2593240E+05 -0.3679237E+05  0.1928741E+06 -0.1352655E+05 -0.7909379E+05
  0.6600000E+01 -0.1851193E+05 -0.2357497E+05 -0.3475645E+05  0.1836335E+06 -0.1630991E+05 -0.8349403E+05
  0.6700000E+01 -0.2001915E+05 -0.2122264E+05 -0.3284119E+05  0.1747201E+06 -0.1851344E+05 -0.8556553E+05
  0.6800000E+01 -0.2095236E+05 -0.1893699E+05 -0.3106800E+05  0.1662295E+06 -0.2008964E+05 -0.8536128E+05
  0.6900000E+01 -0.2129876E+05 -0.1677213E+05 -0.2945285E+05  0.1582366E+06 -0.2101012E+05 -0.8299125E+05
  0.7000000E+01 -0.2106267E+05 -0.1477337E+05 -0.2800588E+05  0.1507950E+06 -0.2126679E+05 -0.7861921E+05
  0.7100000E+01 -0.2026565E+05 -0.1297618E+05 -0.2673119E+05  0.1439354E+06 -0.2087224E+05 -0.7245800E+05
  0.7200000E+01 -0.1894612E+05 -0.1140578E+05 -0.2562711E+05  0.1376670E+06 -0.1985967E+05 -0.6476371E+05
  0.7300000E+01 -0.1715777E+05 -0.1007696E+05 -0.2468621E+05  0.1319772E+06 -0.1828118E+05 -0.5582591E+05
  0.7400000E+01 -0.1496786E+05 -0.8994305E+04 -0.2389593E+05  0.1268342E+06 -0.1620603E+05 -0.4595930E+05
  0.7500000E+01 -0.1245452E+05 -0.8152888E+04 -0.2323903E+05  0.1221886E+06 -0.1371761E+05 -0.3549115E+05
  0.7600000E+01 -0.9704173E+04 -0.7539220E+04 -0.2269445E+05  0.1179764E+06 -0.1091059E+05 -0.2475255E+05
  0.7700000E+01 -0.6808002E+04 -0.7132359E+04 -0.2223811E+05  0.1141221E+06 -0.7886770E+04 -0.1406512E+05
  0.7800000E+01 -0.3858928E+04 -0.6905462E+04 -0.2184394E+05  0.1105426E+06 -0.4751619E+04 -0.3732114E+04
  0.7900000E+01 -0.9479268E+03 -0.6827099E+04 -0.2148471E+05  0.1071498E+06 -0.1609913E+04  0.5973042E+04
  0.8000000E+01  0.1838939E+04 -0.6863074E+04 -0.2113328E+05  0.1038551E+06  0.1437791E+04  0.1481332E+05
  0.8100000E+01  0.4423600E+04 -0.6977771E+04 -0.2076335E+05  0.1005724E+06  0.4298962E+04  0.2259631E+05
  0.8200000E+01  0.6738432E+04 -0.7135880E+04 -0.2035063E+05  0.9722166E+05  0.6892015E+04  0.2917770E+05
  0.8300000E+01  0.8728552E+04 -0.7303691E+04 -0.1987356E+05  0.9373185E+05  0.9149245E+04  0.3446524E+05
  0.8400001E+01  0.1035320E+05 -0.7450311E+04 -0.1931399E+05  0.9004255E+05  0.1101863E+05  0.3841901E+05
  0.8500000E+01  0.1158649E+05 -0.7548819E+04 -0.1865801E+05  0.8610759E+05  0.1246497E+05  0.4104893E+05
  0.8600000E+01  0.1241801E+05 -0.7576964E+04 -0.1789619E+05  0.8189502E+05  0.1347069E+05  0.4241241E+05
  0.8700000E+01  0.1285233E+05 -0.7517834E+04 -0.1702394E+05  0.7738882E+05  0.1403564E+05  0.4260911E+05
  0.8800000E+01  0.1290786E+05 -0.7360042E+04 -0.1604153E+05  0.7258834E+05  0.1417588E+05  0.4177289E+05
  0.8900001E+01  0.1261580E+05 -0.7097946E+04 -0.1495412E+05  0.6750896E+05  0.1392263E+05  0.4006565E+05
  0.9000000E+01  0.1201793E+05 -0.6731322E+04 -0.1377132E+05  0.6217991E+05  0.1331987E+05  0.3766768E+05
  0.9100000E+01  0.1116431E+05 -0.6265142E+04 -0.1250696E+05  0.5664402E+05  0.1242175E+05  0.3476822E+05
  0.9200000E+01  0.1011095E+05 -0.5708853E+04 -0.1117833E+05  0.5095491E+05  0.1129006E+05  0.3155760E+05
  0.9300000E+01  0.8917164E+04 -0.5075814E+04 -0.9805592E+04  0.4517492E+05  0.9991100E+04  0.2821848E+05
  0.9400001E+01  0.7642674E+04 -0.4382436E+04 -0.8411021E+04  0.3937327E+05  0.8592326E+04  0.2491719E+05
  0.9500000E+01  0.6345510E+04 -0.3647092E+04 -0.7017958E+04  0.3362188E+05  0.7159972E+04  0.2179902E+05
  0.9600000E+01  0.5079377E+04 -0.2889480E+04 -0.5650076E+04  0.2799359E+05  0.5755870E+04  0.1898186E+05
  0.9700000E+01  0.3891674E+04 -0.2129640E+04 -0.4330571E+04  0.2255969E+05  0.4435081E+04  0.1655244E+05
  0.9800000E+01  0.2822221E+04 -0.1386862E+04 -0.3081039E+04  0.1738600E+05  0.3244320E+04  0.1456652E+05
  0.9900001E+01  0.1901643E+04 -0.6792088E+03 -0.1920956E+04  0.1253177E+05  0.2219981E+04  0.1304611E+05
  0.1000000E+02  0.1150908E+04 -0.2263357E+02 -0.8668517E+03  0.8047103E+04  0.1387500E+04  0.1198281E+05
