VARIABLES="w (rad/s)"  
"A   1   1" "B   1   1"
"A   1   2" "B   1   2"
"A   1   3" "B   1   3"
"A   1   4" "B   1   4"
"A   1   5" "B   1   5"
"A   1   6" "B   1   6"
Zone t="Motion of body    1 in DoF   1",I=    10,F=POINT
  0.3141590E+00  0.3541448E+06  0.1527880E+03  0.1025391E-01  0.2343064E-02  0.7196045E-01  0.4783537E-02 -0.3243408E+00 -0.2192063E-01  0.2683490E+06  0.1938042E+03  0.1649332E+07  0.6676315E+03
  0.5119630E+00  0.3766151E+06  0.1843307E+04 -0.1025391E-01  0.7558048E-03  0.2175903E-01  0.3019801E-02 -0.1297607E+00 -0.1181555E-01  0.2926535E+06  0.2263846E+04  0.1748722E+07  0.8058278E+04
  0.7097670E+00  0.4200556E+06  0.1602997E+05  0.1812744E-01  0.4770696E-02  0.3540039E-01  0.1525431E-01 -0.1768799E+00 -0.8400974E-01  0.3388273E+06  0.1884663E+05  0.1940713E+07  0.7012822E+05
  0.9075710E+00  0.4746608E+06  0.8146827E+05  0.2374268E-01  0.2337616E-01  0.5914307E-01  0.3545199E-01 -0.3330078E+00 -0.1870646E+00  0.3930995E+06  0.9127455E+05  0.2182822E+07  0.3567662E+06
  0.1105375E+01  0.4776716E+06  0.2482531E+06  0.6347656E-02 -0.7421340E-02  0.1586914E-02 -0.1302108E-01 -0.2685547E-01  0.6881607E-01  0.3884628E+06  0.2655489E+06  0.2200486E+07  0.1088464E+07
  0.1303179E+01  0.3649952E+06  0.4444658E+06 -0.1184082E-01  0.2911154E-01 -0.1330566E-01  0.4307076E-01  0.4577637E-01 -0.2096667E+00  0.2680401E+06  0.4579601E+06  0.1712425E+07  0.1951171E+07
  0.1500983E+01  0.2198040E+06  0.5232702E+06  0.1854134E-01 -0.2858317E-01  0.1290131E-01 -0.7283212E-02 -0.8677673E-01  0.5203603E-01  0.1249802E+06  0.5274690E+06  0.1085374E+07  0.2302283E+07
  0.1698787E+01  0.1247360E+06  0.4994809E+06  0.2990723E-02  0.1119806E-01  0.1352310E-01  0.4562172E-02 -0.7421875E-01 -0.2198137E-01  0.3651847E+05  0.5024739E+06  0.6836530E+06  0.2221214E+07
  0.1896591E+01  0.7637441E+05  0.4359992E+06  0.7354736E-02  0.8392507E-02  0.2983093E-02  0.5165733E-02 -0.1623535E-01 -0.4283073E-01 -0.7187703E+04  0.4475293E+06  0.4787045E+06  0.2008376E+07
  0.2094395E+01  0.5609596E+05  0.3595417E+06 -0.3875732E-02  0.6135923E-02  0.8590698E-02 -0.3355583E-03 -0.2972412E-01 -0.1508414E-01 -0.2673673E+05  0.3856383E+06  0.3660779E+06  0.1763577E+07
Zone t="Motion of body    1 in DoF   2",I=    10,F=POINT
  0.3141590E+00  0.7568359E-02  0.6087981E-03  0.1939433E+06  0.4924092E+04  0.9104929E+05  0.9336448E+04 -0.5779885E+06 -0.4689280E+05  0.3576660E-01 -0.1965411E-02 -0.1230469E+00  0.1495630E-02
  0.5119630E+00  0.6835938E-02 -0.2671682E-02  0.2007701E+06  0.1386847E+05  0.8728129E+05  0.2371810E+05 -0.5697791E+06 -0.1204336E+06  0.2795410E-01  0.1765497E-02  0.2490234E-01  0.1231161E-01
  0.7097670E+00  0.1831055E-02  0.6866337E-02  0.2045858E+06  0.3376500E+05  0.6918384E+05  0.4768867E+05 -0.4966162E+06 -0.2492052E+06 -0.1306152E-01 -0.4591998E-02  0.7177734E-01 -0.2512603E-01
  0.9075710E+00 -0.1953125E-02  0.3489805E-02  0.2024209E+06  0.6530241E+05  0.4023638E+05  0.6708602E+05 -0.3689070E+06 -0.3746956E+06  0.4760742E-02  0.1357147E-01  0.5908203E-01 -0.8087485E-01
  0.1105375E+01  0.5493164E-03  0.4351604E-02  0.1925598E+06  0.1115854E+06  0.1367561E+05  0.7174330E+05 -0.2376737E+06 -0.4572065E+06  0.1281738E-01  0.4466297E-01  0.4882812E-02  0.9985077E-01
  0.1303179E+01 -0.2288818E-03  0.1936792E-01  0.1687508E+06  0.1704497E+06 -0.1346674E+04  0.5939970E+05 -0.1332885E+06 -0.4760642E+06  0.4882812E-02 -0.7953973E-02  0.3417969E-01  0.5345070E-01
  0.1500983E+01 -0.1462555E-01  0.5762441E-01  0.1280904E+06  0.2268989E+06 -0.2567812E+04  0.4173823E+05 -0.7130130E+05 -0.4501598E+06 -0.1558876E-01  0.3985154E-01  0.3662109E-02  0.3349361E+00
  0.1698787E+01 -0.4776001E-02  0.1728959E-01  0.7864538E+05  0.2509305E+06  0.3373238E+03  0.3135362E+05 -0.3353519E+05 -0.4066265E+06 -0.1760864E-01  0.2042609E-01  0.2136230E-02  0.4811018E-01
  0.1896591E+01  0.1445770E-02 -0.1413703E-01  0.4217605E+05  0.2270184E+06  0.8255913E+02  0.2028146E+05 -0.8942807E+04 -0.3288664E+06 -0.4310608E-03 -0.9173879E-02  0.1037598E-02 -0.1509494E+00
  0.2094395E+01  0.8022308E-02 -0.2825481E-01  0.2988475E+05  0.1860118E+06  0.1233773E+05  0.2635811E+04 -0.3926630E+05 -0.2328988E+06  0.1390076E-01 -0.3785018E-01  0.5529785E-01  0.1738511E-01
Zone t="Motion of body    1 in DoF   3",I=    10,F=POINT
  0.3141590E+00  0.6835938E-02 -0.2492717E-03  0.9312534E+05  0.1019096E+05  0.4429911E+06  0.1946386E+05 -0.2168441E+07 -0.9758355E+05 -0.2941895E-01  0.2109222E-03 -0.6030273E-01  0.2991260E-02
  0.5119630E+00 -0.3424072E-01  0.4937143E-02  0.8805966E+05  0.2579700E+05  0.4265991E+06  0.4551040E+05 -0.2087428E+07 -0.2292717E+06 -0.6091309E-01  0.6187053E-02  0.1333008E+00 -0.3624738E-02
  0.7097670E+00 -0.9399414E-02  0.1178324E-01  0.6661377E+05  0.5083720E+05  0.3851715E+06  0.8029438E+05 -0.1878047E+07 -0.4071002E+06 -0.6225586E-02  0.8924073E-02 -0.6591797E-01 -0.4574670E-01
  0.9075710E+00 -0.4211426E-02  0.1307292E-01  0.3468314E+05  0.6809704E+05  0.3380569E+06  0.9591894E+05 -0.1635314E+07 -0.4878709E+06 -0.3674316E-01  0.2836159E-01  0.6835938E-02  0.9306148E-02
  0.1105375E+01 -0.2349854E-02 -0.1609082E-01  0.9429135E+04  0.6746730E+05  0.3089023E+06  0.8814109E+05 -0.1483544E+07 -0.4435955E+06  0.2404785E-01  0.3251896E-01  0.7781982E-02  0.1918754E+00
  0.1303179E+01 -0.2700806E-02  0.2853488E-01 -0.2299957E+03  0.5247984E+05  0.2987353E+06  0.6723682E+05 -0.1435534E+07 -0.3281710E+06  0.8767700E-01 -0.2787868E-01 -0.6433105E-01  0.1619429E+00
  0.1500983E+01  0.1718140E-01  0.5429200E-01  0.2099940E+04  0.3995125E+05  0.3007738E+06  0.4491359E+05 -0.1452903E+07 -0.2134613E+06 -0.1284790E-01  0.2668221E-01  0.5834961E-01  0.2810678E+00
  0.1698787E+01 -0.1147461E-01 -0.7342245E-02  0.3021253E+04  0.3612804E+05  0.3072709E+06  0.2968734E+05 -0.1487780E+07 -0.1383788E+06 -0.5773926E-01 -0.2717862E-01 -0.4882812E-01 -0.6749941E-01
  0.1896591E+01  0.7934570E-03 -0.2032289E-01  0.5582151E+03  0.2570900E+05  0.3099767E+06  0.2190317E+05 -0.1508436E+07 -0.9103170E+05 -0.3125000E-01 -0.3454674E-01  0.1696777E-01 -0.1168006E+00
  0.2094395E+01 -0.7568359E-02 -0.3373228E-01  0.7472259E+04  0.1019166E+05  0.3192251E+06 -0.1378089E+05 -0.1551655E+07  0.2285410E+05 -0.7141113E-02 -0.2952364E-01 -0.4272461E-01 -0.1250354E+00
Zone t="Motion of body    1 in DoF   4",I=    10,F=POINT
  0.3141590E+00  0.8203125E-01 -0.4103395E-02 -0.5808764E+06 -0.4896003E+05 -0.2149414E+07 -0.9333216E+05  0.1208197E+08  0.4681466E+06  0.3603516E+00 -0.7823296E-02  0.6406250E+00  0.9817469E-02
  0.5119630E+00  0.1079102E+00 -0.1843617E-01 -0.5692181E+06 -0.1254578E+06 -0.2074065E+07 -0.2194843E+06  0.1172747E+08  0.1108054E+07  0.4726562E+00  0.4549671E-01  0.6191406E+00  0.2149845E-01
  0.7097670E+00 -0.6201172E-01 -0.2131380E-01 -0.4873388E+06 -0.2563601E+06 -0.1877396E+07 -0.3920359E+06  0.1076381E+08  0.2004636E+07 -0.2988281E+00 -0.1275363E+00 -0.4160156E+00  0.8317582E-01
  0.9075710E+00  0.1374512E+00  0.6447831E-01 -0.3527066E+06 -0.3751684E+06 -0.1645741E+07 -0.4772415E+06  0.9598354E+07  0.2496724E+07  0.4975586E+00 -0.2007469E+00  0.1301758E+01  0.2428461E+00
  0.1105375E+01 -0.8544922E-02 -0.2509762E-01 -0.2265656E+06 -0.4433948E+06 -0.1493860E+07 -0.4456074E+06  0.8798151E+07  0.2418973E+07 -0.2895508E+00  0.2795821E+00  0.4980469E-01 -0.4339460E+00
  0.1303179E+01  0.8508301E-01  0.1347403E+00 -0.1376169E+06 -0.4566090E+06 -0.1437356E+07 -0.3395572E+06  0.8458557E+07  0.1953989E+07 -0.5866699E+00  0.2013946E+00  0.6135254E+00  0.4123340E+00
  0.1500983E+01 -0.5371094E-01 -0.2939852E+00 -0.8541784E+05 -0.4472174E+06 -0.1447666E+07 -0.2246279E+06  0.8451618E+07  0.1415846E+07 -0.6079102E-01 -0.2730059E+00 -0.4627686E+00 -0.1200493E+01
  0.1698787E+01  0.8251953E-01  0.3680843E-02 -0.4087341E+05 -0.4263111E+06 -0.1480588E+07 -0.1482040E+06  0.8567653E+07  0.1016062E+07  0.4526367E+00 -0.1217270E+00  0.2702637E+00 -0.9124343E-01
  0.1896591E+01 -0.3515625E-01 -0.5180203E-01 -0.4246596E+04 -0.3515464E+06 -0.1494691E+07 -0.1075232E+06  0.8647895E+07  0.7322507E+06  0.1440430E+00 -0.1901916E+00 -0.7666016E-01 -0.4352528E+00
  0.2094395E+01  0.1159668E-01  0.1644955E+00 -0.2480418E+05 -0.2476800E+06 -0.1541887E+07  0.6526784E+05  0.8856579E+07  0.1381894E+06  0.4882812E-02  0.1335841E+00  0.5566406E-01  0.3916764E+00
Zone t="Motion of body    1 in DoF   5",I=    10,F=POINT
  0.3141590E+00  0.2694141E+06  0.1960616E+03 -0.6738281E-01 -0.6564616E-02 -0.2198486E+00 -0.1244591E-01  0.1121460E+01  0.6311562E-01  0.1583541E+07  0.2486830E+03  0.1185566E+07  0.8567242E+03
  0.5119630E+00  0.2940659E+06  0.2293542E+04 -0.9136963E-01 -0.1946148E-01 -0.2388916E+00 -0.3753879E-01  0.1241455E+01  0.1896045E+00  0.1610404E+07  0.2816849E+04  0.1294302E+07  0.1002646E+05
  0.7097670E+00  0.3408917E+06  0.1912911E+05  0.4876709E-01  0.2455203E-01  0.3173828E-01  0.4315829E-01 -0.3105469E+00 -0.2179141E+00  0.1660084E+07  0.2249066E+05  0.1500780E+07  0.8368316E+05
  0.9075710E+00  0.3959899E+06  0.9280461E+05 -0.1647949E-01 -0.4196075E-01 -0.1630859E+00 -0.6030993E-01  0.7148438E+00  0.3141379E+00  0.1714601E+07  0.1039744E+06  0.1744446E+07  0.4063637E+06
  0.1105375E+01  0.3908744E+06  0.2702465E+06  0.1611328E-01 -0.1450535E-01  0.4309082E-01 -0.2000389E-01 -0.1293945E+00  0.9553289E-01  0.1700785E+07  0.2890898E+06  0.1725335E+07  0.1184511E+07
  0.1303179E+01  0.2674318E+06  0.4657215E+06 -0.1196289E-01  0.1686242E-01  0.1092529E+00  0.1511255E-01 -0.4737549E+00 -0.9481136E-01  0.1570162E+07  0.4799852E+06  0.1188046E+07  0.2042449E+07
  0.1500983E+01  0.1210083E+06  0.5344902E+06 -0.1005554E-01  0.1539094E-01  0.1391602E-01  0.4237089E-01 -0.3723145E-01 -0.2162060E+00  0.1426835E+07  0.5392856E+06  0.5532173E+06  0.2344184E+07
  0.1698787E+01  0.3111070E+05  0.5054137E+06  0.1617432E-02 -0.2934306E-01 -0.9875488E-01 -0.3302390E-01  0.4522095E+00  0.2113115E+00  0.1344385E+07  0.5098552E+06  0.1733768E+06  0.2227334E+07
  0.1896591E+01 -0.1190286E+05  0.4455332E+06 -0.2319336E-01 -0.5440660E-02 -0.8044434E-01 -0.2532222E-02  0.3662720E+00  0.1319649E-01  0.1306719E+07  0.4602118E+06 -0.2819628E+04  0.2007808E+07
  0.2094395E+01 -0.2928760E+05  0.3814807E+06  0.5065918E-02  0.1022654E-01  0.8544922E-02  0.7685882E-02  0.1770020E-02 -0.3234142E-01  0.1290643E+07  0.4130902E+06 -0.8359041E+05  0.1800982E+07
Zone t="Motion of body    1 in DoF   6",I=    10,F=POINT
  0.3141590E+00  0.1643081E+07  0.6496275E+03  0.3430176E-01  0.7186934E-02  0.3073730E+00  0.2138883E-01 -0.1391113E+01 -0.1088724E+00  0.1175210E+07  0.8240143E+03  0.9428852E+07  0.2838751E+04
  0.5119630E+00  0.1740985E+07  0.7842981E+04 -0.5419922E-01 -0.2620904E-02  0.6201172E-01 -0.7345173E-02 -0.3928223E+00  0.1859241E-01  0.1280887E+07  0.9632361E+04  0.9876702E+07  0.3429152E+05
  0.7097670E+00  0.1930071E+07  0.6830102E+05  0.8740234E-01  0.5902451E-01  0.2297363E+00  0.8626242E-01 -0.9375000E+00 -0.3901033E+00  0.1481603E+07  0.8030283E+05  0.1073748E+08  0.2989348E+06
  0.9075710E+00  0.2170034E+07  0.3480410E+06  0.1833496E+00  0.4376105E-01  0.1569824E+00  0.1138341E+00 -0.8959961E+00 -0.6153136E+00  0.1720112E+07  0.3899394E+06  0.1184085E+08  0.1525808E+07
  0.1105375E+01  0.2194346E+07  0.1065598E+07  0.8837891E-01 -0.3751150E-01 -0.8300781E-02 -0.2064482E-01  0.2832031E-01  0.7340381E-01  0.1711455E+07  0.1139845E+07  0.1202896E+08  0.4684096E+07
  0.1303179E+01  0.1724383E+07  0.1923233E+07  0.2624512E-01  0.1240820E+00 -0.4089355E-01  0.8749370E-01  0.2524414E+00 -0.4403319E+00  0.1207192E+07  0.1981426E+07  0.1008637E+08  0.8499812E+07
  0.1500983E+01  0.1108868E+07  0.2294738E+07  0.1065674E+00 -0.2689750E+00  0.8432007E-01 -0.9839208E-01 -0.3862305E+00  0.7270386E+00  0.5988352E+06  0.2311367E+07  0.7544070E+07  0.1028678E+08
  0.1698787E+01  0.7013312E+06  0.2244808E+07  0.3466797E-01  0.4313326E-01  0.1955414E-01  0.9746457E-02 -0.8447266E-01 -0.1990766E-01  0.2179426E+06  0.2249486E+07  0.5939888E+07  0.1044626E+08
  0.1896591E+01  0.4776041E+06  0.2050753E+07  0.6884766E-01  0.0000000E+00  0.8186340E-02 -0.8681905E-02 -0.5566406E-01 -0.7871594E-01  0.1642424E+05  0.2077784E+07  0.5110535E+07  0.1041568E+08
  0.2094395E+01  0.3441268E+06  0.1782451E+07  0.7275391E-01 -0.3898868E-01  0.3628540E-01 -0.1147290E-01 -0.2158203E+00  0.1459838E+00 -0.1039724E+06  0.1860550E+07  0.4402975E+07  0.1071418E+08
